,formula,xc,encut,ispin,ivdw,concentration,potential_energy,ZPE_correction,temperature,Cp,enthalpy_calculated,enthalpy_experimental,pressure,entropy,free_energy
1309,HCOOH,RPBE,520,2,12,0.0,-29.52481666,0.8859990120000001,298.15,0.1130972958615315,-28.525720352138467,-3.9244514030036863,5714.155064883787,0.0028295243778131258,-29.369343045383452
1310,CH3OH,RPBE,520,2,12,0.0,-30.21444325,1.3561379945,298.15,0.11761636166915235,-28.740688893830846,-2.0814769872284744,16938.450392599163,0.0026313439114581776,-29.525224081032103
1311,CH4,RPBE,520,2,12,0.0,-24.21747592,1.186179674,298.15,0.10394394391288309,-22.927352302087115,-0.7762174598206185,100000.0,0.0019320118190071865,-23.503381625924106
1312,C2H4,RPBE,520,2,12,0.0,-32.03830537,1.3518450515,298.15,0.10926876281778042,-30.577191555682223,0.5420512987574153,100000.0,0.00227475213832728,-31.2554089057245
1313,C2H6,RPBE,520,2,12,0.0,-40.72758627,1.9800964305,298.15,0.12160613754367033,-38.62588370195633,-0.8716184884019238,100000.0,0.0023673886308018177,-39.331720622229895
1314,CH2O,RPBE,520,2,12,0.0,-22.00735474,0.6988367085,298.15,0.10394210717038987,-21.20457592432961,,100000.0,0.0022698582575952113,-21.88133416383162
1315,N2,RPBE,520,2,12,0.0,-16.37867978,0.14904537550000002,298.15,0.08992672270426466,-16.139707681795734,0.0,100000.0,0.0019885160621822676,-16.732583745735376
1316,NH3,RPBE,520,2,12,0.0,-19.6137557,0.9111146305000001,298.15,0.103833017559536,-18.598808051940463,-0.47700514290652546,100000.0,0.0019972156398170167,-19.194277894951906
1317,H2O,RPBE,520,2,12,0.1,-14.55718058,0.5604743195,298.15,0.10288566618701978,-13.89382059431298,-2.506445205454288,3166.74874006291,0.002257419249329478,-14.566870143500564
1318,H2,RPBE,520,2,12,0.1,-7.01949904,0.268366675,298.15,0.08992399685547636,-6.661208368144524,0.0,100000.0,0.001352379171807613,-7.064420218218964
1319,O2,RPBE,520,2,12,0.1,-9.66883519,0.095760975,298.15,0.09003493377526542,-9.483039281224734,0.0,100000.0,0.0021299050825429656,-10.118070481584919
1320,H2O2,RPBE,520,2,12,0.1,-18.40995519,0.6891676015,298.15,0.11708487748218788,-17.603702711017814,-1.4093333767692797,100000.0,0.0023853190871447453,-18.31488559685002
1321,CO2,RPBE,520,2,12,0.1,-22.60282994,0.300232612,298.15,0.09843436200476524,-22.204162965995234,-4.080562177045822,100000.0,0.00222483780795146,-22.867498358435963
1322,CO,RPBE,520,2,12,0.1,-14.57274364,0.1301055335,298.15,0.08993439235059605,-14.352703714149404,-1.144812342975661,100000.0,0.0020510990272691707,-14.964238889129708
1323,HCOOH,RPBE,520,2,12,0.1,-29.90887612,0.8850250985000001,298.15,0.11301405807462728,-28.91083696342537,-3.9244514030036863,5714.155064883787,0.0028290750268385044,-29.754325682677273
1324,CH3OH,RPBE,520,2,12,0.1,-30.45522305,1.350093131,298.15,0.11864128754547698,-28.986488631454524,-2.0814769872284744,16938.450392599163,0.0026390500138058558,-29.773321393070738
1325,CH4,RPBE,520,2,12,0.1,-24.24063266,1.1796080405000002,298.15,0.1040131941903506,-22.95701142530965,-0.7762174598206185,100000.0,0.0019324716058656836,-23.5331778345985
1326,C2H4,RPBE,520,2,12,0.1,-32.10712879,1.3480851495,298.15,0.1091896497837912,-30.649853990716206,0.5420512987574153,100000.0,0.0022748852288367177,-31.328111021693875
1327,C2H6,RPBE,520,2,12,0.1,-40.75353205,1.973460457,298.15,0.12173804973709124,-38.658333543262906,-0.8716184884019238,100000.0,0.0023682397214285873,-39.36442421620684
1328,CH2O,RPBE,520,2,12,0.1,-22.21669535,0.704745368,298.15,0.10391137435407427,-21.408038607645924,,100000.0,0.0022702522517325146,-22.084914316499972
1329,N2,RPBE,520,2,12,0.1,-16.40556631,0.14904633150000002,298.15,0.0899267225188708,-16.16659325598113,0.0,100000.0,0.001988420975508304,-16.75944096982893
1330,NH3,RPBE,520,2,12,0.1,-19.83006097,0.9065950340000002,298.15,0.10378383900336474,-18.819682096996637,-0.47700514290652546,100000.0,0.0019971507708033453,-19.415132599311654
1331,H2O,RPBE,520,2,12,1.0,-14.55774258,0.5604866024999999,298.15,0.10288554149291085,-13.894370436007089,-2.506445205454288,3166.74874006291,0.0022574219276466963,-14.567420783734951
1332,H2,RPBE,520,2,12,1.0,-7.01950982,0.268365572,298.15,0.089923996855513,-6.661220251144487,0.0,100000.0,0.0013523794153696277,-7.064432173836941
1333,O2,RPBE,520,2,12,1.0,-9.66884107,0.095760701,298.15,0.09003493582542854,-9.48304543317457,0.0,100000.0,0.002129904989998404,-10.118076605942594
1334,H2O2,RPBE,520,2,12,1.0,-18.41107179,0.6895810055,298.15,0.11695335290195796,-17.604537431598043,-1.4093333767692797,100000.0,0.0023843022692852695,-18.315417153185447
1335,CO2,RPBE,520,2,12,1.0,-22.60301713,0.3002367815,298.15,0.09843513500204959,-22.20434521349795,-4.080562177045822,100000.0,0.002224841442995335,-22.86768168972701
1336,CO,RPBE,520,2,12,1.0,-14.57279166,0.13008223200000002,298.15,0.08993440936010744,-14.352775018639893,-1.144812342975661,100000.0,0.0020510989896456457,-14.964310182402741
1337,HCOOH,RPBE,520,2,12,1.0,-29.90944162,0.8834389265,298.15,0.11319833629492693,-28.912804357205072,-3.9244514030036863,5714.155064883787,0.0028299571612495243,-29.75655608483162
1338,CH3OH,RPBE,520,2,12,1.0,-30.45566174,1.350333285,298.15,0.11837177058028336,-28.986956684419717,-2.0814769872284744,16938.450392599163,0.002636968567591786,-29.773168862847207
1339,CH4,RPBE,520,2,12,1.0,-24.2406455,1.1797556009999999,298.15,0.10401369982089315,-22.956876199179106,-0.7762174598206185,100000.0,0.0019324737215809635,-23.53304323926847
1340,C2H4,RPBE,520,2,12,1.0,-32.10721305,1.3484064075,298.15,0.10918110978623896,-30.64962553271376,0.5420512987574153,100000.0,0.0022748467746737605,-31.32787109858274
1341,C2H6,RPBE,520,2,12,1.0,-40.75354616,1.9729776209999998,298.15,0.12176387803454092,-38.65880466096546,-0.8716184884019238,100000.0,0.0023684098243478367,-39.364946050094765
1342,CH2O,RPBE,520,2,12,1.0,-22.21712481,0.7049385225,298.15,0.10391159584080345,-21.408274691659198,,100000.0,0.002270254842538838,-22.085151172962153
1343,N2,RPBE,520,2,12,1.0,-16.40559257,0.149078022,298.15,0.08992671638024538,-16.166587831619754,0.0,100000.0,0.0019884208485672974,-16.759435507620093
1344,NH3,RPBE,520,2,12,1.0,-19.83040157,0.9066845265000001,298.15,0.10378039829365915,-18.81993664520634,-0.47700514290652546,100000.0,0.0019971371845074622,-19.41538309676724