,formula,xc,encut,ispin,ivdw,concentration,potential_energy,ZPE_correction,temperature,Cp,enthalpy_calculated,enthalpy_experimental,pressure,entropy,free_energy
955,O2,RPBE,400,1,12,1.0,-9.67660015,0.0956676005,298.15,0.09003563458217789,-9.490896914917823,0.0,100000.0,0.0021300786943061877,-10.125979877625213
956,H2O2,RPBE,400,1,12,1.0,-18.42816855,0.6868112175000001,298.15,0.11722104173368275,-17.624136290766316,-1.4093333767692797,100000.0,0.0023864998026043587,-18.335671206912806
957,CO2,RPBE,400,1,12,1.0,-22.65011179,0.30036689050000004,298.15,0.0984752798527187,-22.25126961964728,-4.080562177045822,100000.0,0.0022250504798372005,-22.91466842021074
958,CO,RPBE,400,1,12,1.0,-14.60060092,0.1298306695,298.15,0.08993459475444299,-14.380835655745557,-1.144812342975661,100000.0,0.0020511349666353347,-14.992381546047882
959,HCOOH,RPBE,400,1,12,1.0,-29.9536248,0.8824073554999999,298.15,0.11322396663855716,-28.957993477861443,-3.9244514030036863,5714.155064883787,0.002830123158441755,-29.801794697550854
960,CH3OH,RPBE,400,1,12,1.0,-30.46868415,1.3500504524999999,298.15,0.11849781874224496,-29.000135878757757,-2.0814769872284744,16938.450392599163,0.002638071892762687,-29.786677013584953
961,CH4,RPBE,400,1,12,1.0,-24.23380006,1.179464222,298.15,0.10401841890161379,-22.950317419098386,-0.7762174598206185,100000.0,0.001932710250915348,-23.526554980408797
962,C2H4,RPBE,400,1,12,1.0,-32.10912271,1.3488829390000001,298.15,0.10913614764482116,-30.65110362335518,0.5420512987574153,100000.0,0.00227473881139023,-31.329316999971176
963,C2H6,RPBE,400,1,12,1.0,-40.74635511,1.973336021,298.15,0.1216057555000647,-38.65141333349994,-0.8716184884019238,100000.0,0.0023674957703268234,-39.35728219742288
964,CH2O,RPBE,400,1,12,1.0,-22.23866067,0.70452995,298.15,0.10391457266796911,-21.430216147332033,,100000.0,0.0022703881598032803,-22.10713237717738
965,N2,RPBE,400,1,12,1.0,-16.37303096,0.14928344200000002,298.15,0.08992667692012699,-16.133820841079874,0.0,100000.0,0.001989044350915739,-16.7268544143054
966,NH3,RPBE,400,1,12,1.0,-19.8085236,0.903724274,298.15,0.10377280062884786,-18.801026525371153,-0.47700514290652546,100000.0,0.0019978176842810375,-19.39667586793955
967,H2O,RPBE,400,2,0,0.0,-14.17278455,0.5646063655,298.15,0.10286036843642554,-13.505317816063574,-2.506445205454288,3166.74874006291,0.0022571979506528822,-14.17830138505073
968,H2,RPBE,400,2,0,0.0,-6.97862151,0.2679739915,298.15,0.08992399686888397,-6.620723521631116,0.0,100000.0,0.0013524112602981773,-7.023944938889017
969,O2,RPBE,400,2,0,0.0,-9.61875863,0.09574104850000001,298.15,0.09003508296873161,-9.432982498531269,0.0,100000.0,0.0021301803100383454,-10.068095757969202
970,H2O2,RPBE,400,2,0,0.0,-17.89888332,0.6910263605,298.15,0.11620320586897082,-17.09165375363103,-1.4093333767692797,100000.0,0.002379067113125797,-17.800972613409485
971,CO2,RPBE,400,2,0,0.0,-22.33195661,0.303369728,298.15,0.09821126102670502,-21.930375620973294,-4.080562177045822,100000.0,0.002223968852437623,-22.59345193432757
972,CO,RPBE,400,2,0,0.0,-14.47596506,0.1301082695,298.15,0.08993439035518677,-14.255922400144813,-1.144812342975661,100000.0,0.0020511838210031494,-14.867482856376903
973,HCOOH,RPBE,400,2,0,0.0,-29.28472167,0.8845204385000001,298.15,0.11301363289775157,-28.287187598602248,-3.9244514030036863,5714.155064883787,0.002829265480959325,-29.13073310175027
974,CH3OH,RPBE,400,2,0,0.0,-29.95252192,1.354378022,298.15,0.11739242470345945,-28.48075147329654,-2.0814769872284744,16938.450392599163,0.0026299443857026998,-29.2648693918938
975,CH4,RPBE,400,2,0,0.0,-24.03300797,1.1853978490000001,298.15,0.10394648073077395,-22.743663640269226,-0.7762174598206185,100000.0,0.001932348209876386,-23.31979325904387
976,C2H4,RPBE,400,2,0,0.0,-31.6784976,1.3501124125000001,298.15,0.10926375677747258,-30.219121430722527,0.5420512987574153,100000.0,0.0022749570962220045,-30.897399888961118
977,C2H6,RPBE,400,2,0,0.0,-40.26268776,1.9773053850000002,298.15,0.1216575933389814,-38.16372478166102,-0.8716184884019238,100000.0,0.002368254538258224,-38.86981987224271
978,CH2O,RPBE,400,2,0,0.0,-21.85072489,0.699100589,298.15,0.10393563359733482,-21.047688667402664,,100000.0,0.0022700285313670817,-21.72449767402976
979,N2,RPBE,400,2,0,0.0,-16.26615953,0.1489658455,298.15,0.08992673817125166,-16.027266946328748,0.0,100000.0,0.0019891371874280923,-16.620328198760433
980,NH3,RPBE,400,2,0,0.0,-19.47752379,0.9081010415,298.15,0.1038068886621738,-18.465615859837825,-0.47700514290652546,100000.0,0.0019978489544747514,-19.061274525614472
981,H2O,RPBE,400,2,0,0.1,-14.51055701,0.557523216,298.15,0.10288696879380577,-13.850146825206194,-2.506445205454288,3166.74874006291,0.0022577262283121455,-14.52328790017746
982,H2,RPBE,400,2,0,0.1,-6.99537872,0.2672996405,298.15,0.08992399689283748,-6.638155082607162,0.0,100000.0,0.001352498482730749,-7.041402505233335
983,O2,RPBE,400,2,0,0.1,-9.62957798,0.09565424400000001,298.15,0.09003573518004192,-9.443888000819959,0.0,100000.0,0.002130082805550303,-10.078972189294781
984,H2O2,RPBE,400,2,0,0.1,-18.30497781,0.685749714,298.15,0.11777524132479655,-17.501452854675204,-1.4093333767692797,100000.0,0.0023907755943357897,-18.21426259812642
985,CO2,RPBE,400,2,0,0.1,-22.48471778,0.300315149,298.15,0.09843549182156797,-22.085967139178432,-4.080562177045822,100000.0,0.002224903703539312,-22.749322178388677
986,CO,RPBE,400,2,0,0.1,-14.52020647,0.129775147,298.15,0.08993463611019173,-14.300496686889808,-1.144812342975661,100000.0,0.0020511381063631645,-14.912043513301985
987,HCOOH,RPBE,400,2,0,0.1,-29.66962693,0.8820290350000001,298.15,0.11319447312451769,-28.674403421875482,-3.9244514030036863,5714.155064883787,0.0028301394129020313,-29.518209487832223
988,CH3OH,RPBE,400,2,0,0.1,-30.19390634,1.3485866990000002,298.15,0.11839778741593854,-28.726921853584063,-2.0814769872284744,16938.450392599163,0.002637423623880108,-29.51326970704392
989,CH4,RPBE,400,2,0,0.1,-24.05659189,1.1789081015,298.15,0.10401913910507266,-22.773664649394927,-0.7762174598206185,100000.0,0.0019328003081283537,-23.349929061263396
990,C2H4,RPBE,400,2,0,0.1,-31.7482856,1.3466607645,298.15,0.10913485722769178,-30.292489978272307,0.5420512987574153,100000.0,0.002274927425281901,-30.970759590120107
991,C2H6,RPBE,400,2,0,0.1,-40.28880925,1.969787212,298.15,0.12171679694625226,-38.19730524105375,-0.8716184884019238,100000.0,0.0023684683309965837,-38.90346407394038
992,CH2O,RPBE,400,2,0,0.1,-22.0606468,0.7044126685,298.15,0.10390823512870095,-21.2523258963713,,100000.0,0.002270431406383478,-21.929255020184534
993,N2,RPBE,400,2,0,0.1,-16.29259124,0.149177808,298.15,0.08992669714048165,-16.05348673485952,0.0,100000.0,0.001989043574577384,-16.646520076619765
994,NH3,RPBE,400,2,0,0.1,-19.69515946,0.9041450844999999,298.15,0.10377164933865557,-18.687242726161344,-0.47700514290652546,100000.0,0.0019978251762451885,-19.282894302458846
995,H2O,RPBE,400,2,0,1.0,-14.51111593,0.5577427475000001,298.15,0.10288572970348109,-13.85048745279652,-2.506445205454288,3166.74874006291,0.0022577246499871726,-14.523628057190194
996,H2,RPBE,400,2,0,1.0,-6.99538966,0.267298529,298.15,0.08992399689287695,-6.638167134107123,0.0,100000.0,0.001352498733002029,-7.041414631351678
997,O2,RPBE,400,2,0,1.0,-9.62958441,0.095654154,298.15,0.09003573585819956,-9.4438945201418,0.0,100000.0,0.0021300827061898724,-10.07897867899231
998,H2O2,RPBE,400,2,0,1.0,-18.30680803,0.6865810375000001,298.15,0.11693495311841118,-17.503292039381588,-1.4093333767692797,100000.0,0.002384406161956961,-18.214202736569057
999,CO2,RPBE,400,2,0,1.0,-22.48490419,0.300301709,298.15,0.09843686224837289,-22.08616561875163,-4.080562177045822,100000.0,0.002224910335403766,-22.749522635252262
1000,CO,RPBE,400,2,0,1.0,-14.52027721,0.1298283545,298.15,0.08993459647558563,-14.300514259024414,-1.144812342975661,100000.0,0.0020511378574830843,-14.912061011232996
1001,HCOOH,RPBE,400,2,0,1.0,-29.67018709,0.8823818435,298.15,0.1130972529072799,-28.67470799359272,-3.9244514030036863,5714.155064883787,0.0028296653298568158,-29.51837271168953
1002,CH3OH,RPBE,400,2,0,1.0,-30.19434257,1.3488359835,298.15,0.1182824179191142,-28.727224168580886,-2.0814769872284744,16938.450392599163,0.0026365692241524233,-29.513317282761932
1003,CH4,RPBE,400,2,0,1.0,-24.05660505,1.1789644479999999,298.15,0.10401885242870756,-22.773621749571294,-0.7762174598206185,100000.0,0.0019327992915281697,-23.349885858340418
1004,C2H4,RPBE,400,2,0,1.0,-31.74837094,1.3466362840000001,298.15,0.10912372411230331,-30.292610931887697,0.5420512987574153,100000.0,0.0022748790652901297,-30.97086612520395
1005,C2H6,RPBE,400,2,0,1.0,-40.28882392,1.9697432055000004,298.15,0.12172087486075789,-38.19735983963924,-0.8716184884019238,100000.0,0.002368499310843164,-38.90352790916713
1006,CH2O,RPBE,400,2,0,1.0,-22.06107752,0.7039286915,298.15,0.10391505704403037,-21.25323377145597,,100000.0,0.0022704590230162914,-21.93017112916828
1007,N2,RPBE,400,2,0,1.0,-16.29261705,0.14917539900000001,298.15,0.08992669760336788,-16.053514953396633,0.0,100000.0,0.001989043423227048,-16.646548250031778
1008,NH3,RPBE,400,2,0,1.0,-19.69550153,0.9037150705000001,298.15,0.10378432369034352,-18.688002135809658,-0.47700514290652546,100000.0,0.0019978782418610345,-19.283669533620525
1009,H2O,RPBE,400,2,11,0.0,-14.17413255,0.564255591,298.15,0.10286104638170479,-13.507015912618295,-2.506445205454288,3166.74874006291,0.0022572085629777587,-14.180002645670113
1010,H2,RPBE,400,2,11,0.0,-6.97862821,0.26797029600000005,298.15,0.08992399686901159,-6.6207339171309885,0.0,100000.0,0.0013524116284811029,-7.023955444162629
1011,O2,RPBE,400,2,11,0.0,-9.61892438,0.095732421,298.15,0.0900351476252307,-9.433156811374769,0.0,100000.0,0.002130182452807325,-10.068270709679272
1012,H2O2,RPBE,400,2,11,0.0,-17.93050314,0.689536573,298.15,0.11606620639232346,-17.124900360607676,-1.4093333767692797,100000.0,0.0023782667798626783,-17.833980601023733
1013,CO2,RPBE,400,2,11,0.0,-22.3497508,0.303318099,298.15,0.09819181524285464,-21.948240885757144,-4.080562177045822,100000.0,0.0022239133338338947,-22.61130064623972
1014,CO,RPBE,400,2,11,0.0,-14.47607816,0.130121014,298.15,0.08993438106539939,-14.2560227649346,-1.144812342975661,100000.0,0.0020511845183495596,-14.867583429080522
1015,HCOOH,RPBE,400,2,11,0.0,-29.36036498,0.884725624,298.15,0.11291167956545822,-28.36272767643454,-3.9244514030036863,5714.155064883787,0.002828992625954274,-29.20619182786281
1016,CH3OH,RPBE,400,2,11,0.0,-30.04262926,1.3544626770000001,298.15,0.1171675191357806,-28.570999063864218,-2.0814769872284744,16938.450392599163,0.0026287620189859775,-29.354764459824885
1017,CH4,RPBE,400,2,11,0.0,-24.05718789,1.180912959,298.15,0.10395617674430513,-22.772318754255696,-0.7762174598206185,100000.0,0.0019326803307777084,-23.34854739487707
1018,C2H4,RPBE,400,2,11,0.0,-31.74373107,1.346694681,298.15,0.10918428564126859,-30.28785210335873,0.5420512987574153,100000.0,0.002275011949511895,-30.966146916105703
1019,C2H6,RPBE,400,2,11,0.0,-40.38682645,1.972914475,298.15,0.12154900640471622,-38.292362968595285,-0.8716184884019238,100000.0,0.0023676642338635256,-38.99828205992169
1020,CH2O,RPBE,400,2,11,0.0,-21.89210488,0.698509872,298.15,0.1039252187231614,-21.08966978927684,,100000.0,0.002270136694899089,-21.766511044861005
1021,N2,RPBE,400,2,11,0.0,-16.26623436,0.14895396349999998,298.15,0.08992674048951557,-16.027353656010483,0.0,100000.0,0.001989137607288271,-16.62041503362348
1022,NH3,RPBE,400,2,11,0.0,-19.48370793,0.9066527154999999,298.15,0.1038159958544913,-18.47323921864551,-0.47700514290652546,100000.0,0.0019979614818982053,-19.06893143447346
1023,H2O,RPBE,400,2,11,0.1,-14.51192944,0.5571565745,298.15,0.10288792040663042,-13.851884945093369,-2.506445205454288,3166.74874006291,0.0022577388855596833,-14.525029793822988
1024,H2,RPBE,400,2,11,0.1,-6.99538549,0.267296159,298.15,0.08992399689296421,-6.638165334107036,0.0,100000.0,0.0013524987883452536,-7.041412847852174
1025,O2,RPBE,400,2,11,0.1,-9.62974265,0.095645695,298.15,0.09003579961546745,-9.444061155384533,0.0,100000.0,0.0021300849148564067,-10.079145972748972
1026,H2O2,RPBE,400,2,11,0.1,-18.33877596,0.6854966445,298.15,0.11719030860620683,-17.536089006893793,-1.4093333767692797,100000.0,0.0023863819199002544,-18.247588776312053
1027,CO2,RPBE,400,2,11,0.1,-22.50245291,0.300263607,298.15,0.0984147261493733,-22.103774576850626,-4.080562177045822,100000.0,0.002224839836220582,-22.767110574019792
1028,CO,RPBE,400,2,11,0.1,-14.52031869,0.1297866405,298.15,0.08993462753623305,-14.300597421963767,-1.144812342975661,100000.0,0.002051138789159603,-14.912144451951702
1029,HCOOH,RPBE,400,2,11,0.1,-29.74448743,0.8811307134999999,298.15,0.11318728807043787,-28.75016942842956,-3.9244514030036863,5714.155064883787,0.002830266539483323,-29.594013397176514
1030,CH3OH,RPBE,400,2,11,0.1,-30.28441497,1.3485419735,298.15,0.11815490087926306,-28.817718095620737,-2.0814769872284744,16938.450392599163,0.002636069085843289,-29.603662093564914
1031,CH4,RPBE,400,2,11,0.1,-24.08086751,1.174494412,298.15,0.10402748719571653,-22.802345610804284,-0.7762174598206185,100000.0,0.0019331318420454313,-23.37870886951013
1032,C2H4,RPBE,400,2,11,0.1,-31.8137169,1.344199797,298.15,0.10911115618275069,-30.36040594681725,0.5420512987574153,100000.0,0.002275035382770612,-31.038707746190312
1033,C2H6,RPBE,400,2,11,0.1,-40.41345496,1.9653629444999998,298.15,0.12167462506492743,-38.326417390435076,-0.8716184884019238,100000.0,0.002368308916210832,-39.032528693803336
1034,CH2O,RPBE,400,2,11,0.1,-22.10184155,0.703503309,298.15,0.10389757672099464,-21.294440664279005,,100000.0,0.0022705980841051282,-21.971419483054948
1035,N2,RPBE,400,2,11,0.1,-16.29266583,0.149177504,298.15,0.08992669719888799,-16.053561628801113,0.0,100000.0,0.001989043976406433,-16.64659509036669
1036,NH3,RPBE,400,2,11,0.1,-19.70130835,0.902801111,298.15,0.10377948070600818,-18.694727758293993,-0.47700514290652546,100000.0,0.0019979346242790068,-19.29041196652278
1037,H2O,RPBE,400,2,11,1.0,-14.51248816,0.5575039765,298.15,0.10288630653162434,-13.852097876968376,-2.506445205454288,3166.74874006291,0.00225773587706376,-14.525241828714936
1038,H2,RPBE,400,2,11,1.0,-6.99539643,0.2672950475,298.15,0.08992399689300457,-6.638177385606996,0.0,100000.0,0.0013524990387350758,-7.041424974005858
1039,O2,RPBE,400,2,11,1.0,-9.62974896,0.095645488,298.15,0.09003580117611659,-9.444067670823884,0.0,100000.0,0.002130084828527671,-10.079152462449409
1040,H2O2,RPBE,400,2,11,1.0,-18.33948674,0.6854742935,298.15,0.11717109711813523,-17.536841349381866,-1.4093333767692797,100000.0,0.002386225826067213,-18.248294579423806
1041,CO2,RPBE,400,2,11,1.0,-22.50263907,0.30025661800000003,298.15,0.09841573804161874,-22.103966713958382,-4.080562177045822,100000.0,0.002224844716821809,-22.767304166278805
1042,CO,RPBE,400,2,11,1.0,-14.52036665,0.129782288,298.15,0.08993463078232136,-14.300649731217678,-1.144812342975661,100000.0,0.0020511386998601647,-14.912196734580986
1043,HCOOH,RPBE,400,2,11,1.0,-29.74504537,0.880900916,298.15,0.11322557152482016,-28.75091888247518,-3.9244514030036863,5714.155064883787,0.002830449579620972,-29.59481742463917
1044,CH3OH,RPBE,400,2,11,1.0,-30.28485219,1.3488903635,298.15,0.11808702838839902,-28.8178747981116,-2.0814769872284744,16938.450392599163,0.0026355675715067166,-29.603669269556327
1045,CH4,RPBE,400,2,11,1.0,-24.08088074,1.1744941815,298.15,0.1040274595440902,-22.80235909895591,-0.7762174598206185,100000.0,0.0019331318591015575,-23.37872236274704
1046,C2H4,RPBE,400,2,11,1.0,-31.81380264,1.3441959300000001,298.15,0.10911102481824875,-30.36049568518175,0.5420512987574153,100000.0,0.0022750353641836983,-31.03879747901312
1047,C2H6,RPBE,400,2,11,1.0,-40.41347012,1.9646010729999999,298.15,0.12174259824786748,-38.32712644875213,-0.8716184884019238,100000.0,0.002368779253804003,-39.033377983273795
1048,CH2O,RPBE,400,2,11,1.0,-22.10227674,0.7032262385,298.15,0.10389802438269868,-21.295152477117302,,100000.0,0.0022706000578035348,-21.972131884351427
1049,N2,RPBE,400,2,11,1.0,-16.29269164,0.149175153,298.15,0.08992669765064126,-16.05358978934936,0.0,100000.0,0.0019890438087430506,-16.6466232009261
1050,NH3,RPBE,400,2,11,1.0,-19.70164979,0.9021859075,298.15,0.10378719116557078,-18.69567669133443,-0.47700514290652546,100000.0,0.0019979666516377233,-19.29137044852022
1051,H2O,RPBE,400,2,12,0.0,-14.22632313,0.5646518545,298.15,0.10286012797129651,-13.558811147528704,-2.506445205454288,3166.74874006291,0.0022571968491609325,-14.231794388106037
1052,H2,RPBE,400,2,12,0.0,-6.99118334,0.26673917,298.15,0.08992399691367414,-6.634520173086326,0.0,100000.0,0.0013524774517124536,-7.037761325314394
1053,O2,RPBE,400,2,12,0.0,-9.66577353,0.09575455,298.15,0.09003498185906145,-9.479983998140938,0.0,100000.0,0.002130176260611482,-10.11509605024225
1054,H2O2,RPBE,400,2,12,0.0,-18.02066602,0.691393987,298.15,0.11614031713290063,-17.2131317158671,-1.4093333767692797,100000.0,0.0023785810088422037,-17.922305643653402
1055,CO2,RPBE,400,2,12,0.0,-22.49708989,0.30358060400000003,298.15,0.09823348896637224,-22.09527579703363,-4.080562177045822,100000.0,0.00222402813406491,-22.758369785205083
1056,CO,RPBE,400,2,12,0.0,-14.55630877,0.1301171105,298.15,0.08993438390988703,-14.336257275590112,-1.144812342975661,100000.0,0.0020511814007029314,-14.947817010209691
1057,HCOOH,RPBE,400,2,12,0.0,-29.56891745,0.885748461,298.15,0.11295535568344162,-28.57021363331656,-3.9244514030036863,5714.155064883787,0.00282883033290027,-29.413629397070775
1058,CH3OH,RPBE,400,2,12,0.0,-30.22687684,1.356692872,298.15,0.11736252193100682,-28.752821446068992,-2.0814769872284744,16938.450392599163,0.0026296354800421093,-29.536847264443548
1059,CH4,RPBE,400,2,12,0.0,-24.21022828,1.1861733325000001,298.15,0.10394551553730924,-22.92010943196269,-0.7762174598206185,100000.0,0.0019322686752204221,-23.496215337479658
1060,C2H4,RPBE,400,2,12,0.0,-32.03948277,1.351584703,298.15,0.10926091197025678,-30.578637155029742,0.5420512987574153,100000.0,0.002274802268811696,-31.25686945147595
1061,C2H6,RPBE,400,2,12,0.0,-40.71997577,1.981917531,298.15,0.12143027821743213,-38.616627960782566,-0.8716184884019238,100000.0,0.0023663830164823998,-39.32216505714679
1062,CH2O,RPBE,400,2,12,0.0,-22.0282933,0.6998048259999999,298.15,0.10393362937141626,-21.224554844628585,,100000.0,0.0022699528051780553,-21.901341273492424
1063,N2,RPBE,400,2,12,0.0,-16.34657139,0.14897759800000002,298.15,0.08992673588016062,-16.10766705611984,0.0,100000.0,0.0019891351110234313,-16.700727689471478
1064,NH3,RPBE,400,2,12,0.0,-19.59053346,0.9088005755,298.15,0.10379940557869005,-18.57793347892131,-0.47700514290652546,100000.0,0.001997795088530177,-19.17357608456658
1065,H2O,RPBE,400,2,12,0.1,-14.56408837,0.557524556,298.15,0.1028870272227127,-13.903676786777288,-2.506445205454288,3166.74874006291,0.0022577262120828854,-14.5768178569098
1066,H2,RPBE,400,2,12,0.1,-7.00795209,0.266122901,298.15,0.08992399693760433,-6.6519051920623955,0.0,100000.0,0.001352546047127847,-7.055166796013563
1067,O2,RPBE,400,2,12,0.1,-9.67659418,0.0956676585,298.15,0.09003563414552931,-9.490890887354471,0.0,100000.0,0.0021300787940036637,-10.125973879786663
1068,H2O2,RPBE,400,2,12,0.1,-18.42810239,0.6875260865,298.15,0.11671872870990552,-17.623857574790094,-1.4093333767692797,100000.0,0.0023827647717444026,-18.33427889148569
1069,CO2,RPBE,400,2,12,0.1,-22.64992246,0.3005137625,298.15,0.09845782054126279,-22.250950876958736,-4.080562177045822,100000.0,0.002224965478273688,-22.914324334306038
1070,CO,RPBE,400,2,12,0.1,-14.60057355,0.1298339465,298.15,0.08993459231854908,-14.380805011181451,-1.144812342975661,100000.0,0.0020511356074727756,-14.992351092549459
1071,HCOOH,RPBE,400,2,12,0.1,-29.9530709,0.8825276055000001,298.15,0.11321686870092573,-28.957326425799074,-3.9244514030036863,5714.155064883787,0.0028300858520399676,-29.801116522584792
1072,CH3OH,RPBE,400,2,12,0.1,-30.46824483,1.351356025,298.15,0.11810076296041072,-28.99878804203959,-2.0814769872284744,16938.450392599163,0.0026351437886164846,-29.784456162615594