,formula,xc,encut,ispin,ivdw,concentration,potential_energy,ZPE_correction,temperature,Cp,enthalpy_calculated,enthalpy_experimental,pressure,entropy,free_energy
359,CH4,PBE,400,2,0,0.1,-24.05548756,1.1772094389999999,298.15,0.10410720739006729,-22.774170913609932,-0.7762174598206185,100000.0,0.001932783760271127,-23.35043039173477
360,C2H4,PBE,400,2,0,0.1,-32.0416609,1.345629722,298.15,0.10923382282406813,-30.58679735517593,0.5420512987574153,100000.0,0.002274736518460582,-31.265010048154956
361,C2H6,PBE,400,2,0,0.1,-40.52099704,1.968812389,298.15,0.12152996702664609,-38.43065468397335,-0.8716184884019238,100000.0,0.0023659813070388953,-39.136072010667
362,CH2O,PBE,400,2,0,0.1,-22.35544934,0.703988471,298.15,0.10392929018639907,-21.5475315788136,,100000.0,0.0022698492947012534,-22.22428714602878
363,N2,PBE,400,2,0,0.1,-16.63498098,0.15067757750000002,298.15,0.08992642370378842,-16.394376978796213,0.0,100000.0,0.001988381568963743,-16.987212943582755
364,NH3,PBE,400,2,0,0.1,-19.74292471,0.9028890275000001,298.15,0.10389847662087215,-18.73613720587913,-0.47700514290652546,100000.0,0.001997876929787474,-19.331804212495264
365,H2O,PBE,400,2,0,1.0,-14.57032626,0.5578833885,298.15,0.10289306448448576,-13.909549807015514,-2.506445205454288,3166.74874006291,0.002257678532817611,-14.582676661575086
366,H2,PBE,400,2,0,1.0,-6.77642138,0.2654513435,298.15,0.08992399696495268,-6.421046039535048,0.0,100000.0,0.0013533701439911404,-6.824553347966006
367,O2,PBE,400,2,0,1.0,-9.86940222,0.097083184,298.15,0.09002545965806934,-9.68229357634193,0.0,100000.0,0.0021291955738408264,-10.317113236682573
368,H2O2,PBE,400,2,0,1.0,-18.57018273,0.6909051075000001,298.15,0.11547491724223558,-17.763802705257763,-1.4093333767692797,100000.0,0.002373021924693766,-18.47131919210521
369,CO2,PBE,400,2,0,1.0,-23.14382289,0.303289104,298.15,0.09832439352014177,-22.742209392479857,-4.080562177045822,100000.0,0.0022237280954704457,-23.40521392414437
370,CO,PBE,400,2,0,1.0,-14.84173859,0.131425404,298.15,0.08993347240317087,-14.62037971359683,-1.144812342975661,100000.0,0.0020503862742769384,-15.231702381272498
371,HCOOH,PBE,400,2,0,1.0,-30.30288787,0.8812393304999999,298.15,0.11312800843291781,-29.30852053106708,-3.9244514030036863,5714.155064883787,0.002828797926636527,-30.151926632893762
372,CH3OH,PBE,400,2,0,1.0,-30.46525807,1.3482591255,298.15,0.11827472558060514,-28.998724218919396,-2.0814769872284744,16938.450392599163,0.002635486727425318,-29.784494586701253
373,CH4,PBE,400,2,0,1.0,-24.05550157,1.177130136,298.15,0.10410807703499247,-22.774263356965008,-0.7762174598206185,100000.0,0.0019327873252964053,-23.35052389800213
374,C2H4,PBE,400,2,0,1.0,-32.04174758,1.345625422,298.15,0.10923358344988321,-30.586888574550116,0.5420512987574153,100000.0,0.0022747358672977145,-31.26510107338493
375,C2H6,PBE,400,2,0,1.0,-40.52101236,1.9689438250000002,298.15,0.12152413190591815,-38.43054440309408,-0.8716184884019238,100000.0,0.0023659122732564227,-39.13594114736549
376,CH2O,PBE,400,2,0,1.0,-22.35587933,0.7040397615,298.15,0.10392798239315115,-21.54791158610685,,100000.0,0.0022698444486554054,-22.22466570847346
377,N2,PBE,400,2,0,1.0,-16.63509688,0.1505987255,298.15,0.08992643737072478,-16.394571717129274,0.0,100000.0,0.001988402583912197,-16.987413947522697
378,NH3,PBE,400,2,0,1.0,-19.74329277,0.9023089479999999,298.15,0.10388953277684188,-18.73709428922316,-0.47700514290652546,100000.0,0.001997936640067345,-19.332779098459238
379,H2O,PBE,400,2,10,0.0,-14.2232627,0.565301979,298.15,0.10286574043932628,-13.555094980560673,-2.506445205454288,3166.74874006291,0.00225705424960538,-14.228035705080515
380,H2,PBE,400,2,10,0.0,-6.75965148,0.26667725000000003,298.15,0.08992399691602931,-6.40305023308397,0.0,100000.0,0.0013530839186681805,-6.806472203434888
381,O2,PBE,400,2,10,0.0,-9.85879734,0.097142002,298.15,0.09002505710992814,-9.671630280890072,0.0,100000.0,0.002129304688597774,-10.306482473795498
382,H2O2,PBE,400,2,10,0.0,-18.15582743,0.693556284,298.15,0.11527682494210678,-17.346994321057892,-1.4093333767692797,100000.0,0.0023716338268900627,-18.054096946545165
383,CO2,PBE,400,2,10,0.0,-22.99342299,0.30681332650000004,298.15,0.09800277419263492,-22.588606889307364,-4.080562177045822,100000.0,0.002222335046833082,-23.251196083520647
384,CO,PBE,400,2,10,0.0,-14.79805052,0.13170037099999998,298.15,0.08993329112902249,-14.576416857870978,-1.144812342975661,100000.0,0.002050459335303577,-15.187761308691739
385,HCOOH,PBE,400,2,10,0.0,-29.92677405,0.886280949,298.15,0.11275974732711413,-28.927733353672885,-3.9244514030036863,5714.155064883787,0.0028271128852012683,-29.770637060395643
386,CH3OH,PBE,400,2,10,0.0,-30.25317145,1.3503105845000003,298.15,0.11746006129735109,-28.78540080420265,-2.0814769872284744,16938.450392599163,0.002629486270533782,-29.569382135762297
387,CH4,PBE,400,2,10,0.0,-24.05252921,1.1784931145,298.15,0.10402185492965921,-22.77001424057034,-0.7762174598206185,100000.0,0.0019327150375359216,-23.346253229011676
388,C2H4,PBE,400,2,10,0.0,-32.00335056,1.3458649595,298.15,0.10934796875590713,-30.548137631744094,0.5420512987574153,100000.0,0.002275079650885704,-31.22645262965567
389,C2H6,PBE,400,2,10,0.0,-40.56278579,1.9677028710000002,298.15,0.12170082957531037,-38.47338208942469,-0.8716184884019238,100000.0,0.0023670579517121046,-39.17912041772765
390,CH2O,PBE,400,2,10,0.0,-22.15592111,0.69679571,298.15,0.10394126357449807,-21.355184136425503,,100000.0,0.0022697398161216982,-22.031907062602187
391,N2,PBE,400,2,10,0.0,-16.60859498,0.15039559349999998,298.15,0.08992647293074618,-16.368272913569253,0.0,100000.0,0.0019884944216627897,-16.961142525388013
392,NH3,PBE,400,2,10,0.0,-19.524084,0.9073975350000001,298.15,0.10389075530535519,-18.512795709694643,-0.47700514290652546,100000.0,0.0019978112906033265,-19.108443145988026
393,H2O,PBE,400,2,10,0.1,-14.57061067,0.5575639290000001,298.15,0.10289409956969608,-13.910152641430304,-2.506445205454288,3166.74874006291,0.0022576879486480386,-14.583282303319717
394,H2,PBE,400,2,10,0.1,-6.77643469,0.265450062,298.15,0.08992399696500653,-6.421060631034994,0.0,100000.0,0.001353370197418588,-6.824567955395346
395,O2,PBE,400,2,10,0.1,-9.86943567,0.0970826345,298.15,0.09002546342620608,-9.682327572073794,0.0,100000.0,0.0021291958703564314,-10.317147320820563
396,H2O2,PBE,400,2,10,0.1,-18.57815964,0.690882858,298.15,0.11535529989796889,-17.77192148210203,-1.4093333767692797,100000.0,0.002372196807767665,-18.47919196033796
397,CO2,PBE,400,2,10,0.1,-23.14621477,0.303217062,298.15,0.09831603520496113,-22.74468167279504,-4.080562177045822,100000.0,0.002223701408701326,-23.40767824779934
398,CO,PBE,400,2,10,0.1,-14.84173156,0.13142526100000002,298.15,0.08993347249834865,-14.62037282650165,-1.144812342975661,100000.0,0.0020503864980052472,-15.231695560881915
399,HCOOH,PBE,400,2,10,0.1,-30.31970904,0.881494885,298.15,0.11304917850283625,-29.325164976497163,-3.9244514030036863,5714.155064883787,0.002828455134884636,-30.16846887496302
400,CH3OH,PBE,400,2,10,0.1,-30.50038316,1.3425094625,298.15,0.1185197479430371,-29.03935394955696,-2.0814769872284744,16938.450392599163,0.002637285624303356,-29.825660658443006
401,CH4,PBE,400,2,10,0.1,-24.07739593,1.1699895795000002,298.15,0.10413567450895034,-22.80327067599105,-0.7762174598206185,100000.0,0.0019332756639262683,-23.379676815190667
402,C2H4,PBE,400,2,10,0.1,-32.07463233,1.3413498945,298.15,0.10930910402978222,-30.623973331470218,0.5420512987574153,100000.0,0.0022752616520908767,-31.302342593041114
403,C2H6,PBE,400,2,10,0.1,-40.59037092,1.956840633,298.15,0.12203366500613422,-38.511496621993864,-0.8716184884019238,100000.0,0.002368949451679451,-39.217798901012095
404,CH2O,PBE,400,2,10,0.1,-22.36631115,0.7023820560000001,298.15,0.10393198340801135,-21.55999711059199,,100000.0,0.0022700072021647113,-22.2367997579174
405,N2,PBE,400,2,10,0.1,-16.63502518,0.150675036,298.15,0.0899264241431039,-16.394423719856896,0.0,100000.0,0.001988381625266086,-16.98725970142998
406,NH3,PBE,400,2,10,0.1,-19.7473436,0.9012362464999999,298.15,0.10390642393224248,-18.74220092956776,-0.47700514290652546,100000.0,0.0019979744687673427,-19.33789701743074
407,H2O,PBE,400,2,10,1.0,-14.57118446,0.5575375385000001,298.15,0.10289415868415475,-13.910752762815845,-2.506445205454288,3166.74874006291,0.0022576908895373224,-14.583883301531397
408,H2,PBE,400,2,10,1.0,-6.77644569,0.2654488565,298.15,0.08992399696505687,-6.421072836534943,0.0,100000.0,0.0013533704567141335,-6.824580238204262
409,O2,PBE,400,2,10,1.0,-9.86944153,0.0970825775,298.15,0.09002546381708514,-9.682333488682914,0.0,100000.0,0.0021291957570477287,-10.317153203646695
410,H2O2,PBE,400,2,10,1.0,-18.57892086,0.690837245,298.15,0.11543569805558196,-17.77264791694442,-1.4093333767692797,100000.0,0.0023727247341919356,-18.480075796443742
411,CO2,PBE,400,2,10,1.0,-23.14640066,0.303208288,298.15,0.0983171773396454,-22.744875194660356,-4.080562177045822,100000.0,0.00222370687203369,-23.4078733985572
412,CO,PBE,400,2,10,1.0,-14.84178041,0.131424689,298.15,0.0899334728790652,-14.620422248120935,-1.144812342975661,100000.0,0.002050386353211228,-15.231744939330863
413,HCOOH,PBE,400,2,10,1.0,-30.32028546,0.881483458,298.15,0.11304891305177545,-29.325753088948225,-3.9244514030036863,5714.155064883787,0.002828452918812807,-30.169056326692264
414,CH3OH,PBE,400,2,10,1.0,-30.50082776,1.342608773,298.15,0.11849985430672505,-29.039719132693275,-2.0814769872284744,16938.450392599163,0.002637137390798173,-29.82598164575975
415,CH4,PBE,400,2,10,1.0,-24.07741004,1.1699656415,298.15,0.10413601897014435,-22.803308379529856,-0.7762174598206185,100000.0,0.0019332771445990371,-23.379714960192057
416,C2H4,PBE,400,2,10,1.0,-32.07471933,1.3413248709999999,298.15,0.10930996728205633,-30.624084491717944,0.5420512987574153,100000.0,0.0022752657687781655,-31.302454980679155
417,C2H6,PBE,400,2,10,1.0,-40.59038682,1.9567996065000002,298.15,0.12205170183086844,-38.51153551166913,-0.8716184884019238,100000.0,0.002369081124649024,-39.21787704898324
418,CH2O,PBE,400,2,10,1.0,-22.36674081,0.7023864285,298.15,0.10393226004532485,-21.560422121454675,,100000.0,0.002270008995867168,-22.237225303572473
419,N2,PBE,400,2,10,1.0,-16.63514107,0.15059674250000002,298.15,0.0899264377154084,-16.39461788978459,0.0,100000.0,0.0019884026393796788,-16.987460136715644
420,NH3,PBE,400,2,10,1.0,-19.74769242,0.9012151875000001,298.15,0.10390630701238734,-18.742570925487612,-0.47700514290652546,100000.0,0.001997974661092614,-19.338267070692375
421,H2O,PBE,400,2,11,0.0,-14.22254205,0.5655714390000001,298.15,0.10286510386671133,-13.554105507133288,-2.506445205454288,3166.74874006291,0.002257045680404343,-14.227043676745843
422,H2,PBE,400,2,11,0.0,-6.75963035,0.266679152,298.15,0.0899239969159576,-6.4030272010840426,0.0,100000.0,0.0013530836491738966,-6.8064490910852395
423,O2,PBE,400,2,11,0.0,-9.85878435,0.09714178750000001,298.15,0.09002505857511701,-9.671617503924884,0.0,100000.0,0.002129304725658453,-10.306469707879952
424,H2O2,PBE,400,2,11,0.0,-18.15296872,0.6936986940000001,298.15,0.1153752490969584,-17.343894776903042,-1.4093333767692797,100000.0,0.0023723885267490715,-18.051222416153276
425,CO2,PBE,400,2,11,0.0,-22.99331321,0.30685135649999995,298.15,0.09800474349127808,-22.588457110008722,-4.080562177045822,100000.0,0.0022223402215479824,-23.25104784706325
426,CO,PBE,400,2,11,0.0,-14.79804094,0.131702215,298.15,0.08993328992499516,-14.576405435075005,-1.144812342975661,100000.0,0.0020504593490030865,-15.187749889980275
427,HCOOH,PBE,400,2,11,0.0,-29.92350172,0.8865035195,298.15,0.11279446141811156,-28.92420373908189,-3.9244514030036863,5714.155064883787,0.0028272603623556904,-29.76715141611824
428,CH3OH,PBE,400,2,11,0.0,-30.23306507,1.3546122425,298.15,0.11759070582602504,-28.760862121673973,-2.0814769872284744,16938.450392599163,0.0026304622362533646,-29.545134437412916
429,CH4,PBE,400,2,11,0.0,-24.03281886,1.1852184585,298.15,0.103997157500888,-22.74360324399911,-0.7762174598206185,100000.0,0.0019322715727879737,-23.319710013425844
430,C2H4,PBE,400,2,11,0.0,-31.98313581,1.3498889945,298.15,0.1092307825001968,-30.524016032999803,0.5420512987574153,100000.0,0.0022744093032685737,-31.202131166769327
431,C2H6,PBE,400,2,11,0.0,-40.52036408,1.9800466275000004,298.15,0.12142536520043179,-38.41889208729957,-0.8716184884019238,100000.0,0.0023656876224095653,-39.12422185192098
432,CH2O,PBE,400,2,11,0.0,-22.15024927,0.6979012735000001,298.15,0.10394229907726893,-21.34840569742273,,100000.0,0.0022696104375717844,-22.025090049384758
433,N2,PBE,400,2,11,0.0,-16.60857583,0.150397584,298.15,0.08992647257981215,-16.368251773420187,0.0,100000.0,0.001988494403987257,-16.961121379968986
434,NH3,PBE,400,2,11,0.0,-19.52006563,0.9095627079999999,298.15,0.10386485113402633,-18.506638070865975,-0.47700514290652546,100000.0,0.001997605396903613,-19.102224119952787
435,H2O,PBE,400,2,11,0.1,-14.56987563,0.5578536475,298.15,0.10289319374103201,-13.909128788758968,-2.506445205454288,3166.74874006291,0.0022576774643513872,-14.582255324755334
436,H2,PBE,400,2,11,0.1,-6.77641351,0.2654519735,298.15,0.08992399696492664,-6.421037539535074,0.0,100000.0,0.0013533699227996179,-6.82454478201778
437,O2,PBE,400,2,11,0.1,-9.86942266,0.097082419,298.15,0.09002546490401056,-9.68231477609599,0.0,100000.0,0.00212919590753277,-10.317134535926884
438,H2O2,PBE,400,2,11,0.1,-18.57410878,0.6895227500000001,298.15,0.1154113184640142,-17.769174711535985,-1.4093333767692797,100000.0,0.0023727548931594482,-18.47661158293148
439,CO2,PBE,400,2,11,0.1,-23.14611228,0.303253828,298.15,0.09831821359180182,-22.7445402384082,-4.080562177045822,100000.0,0.0022237076967483722,-23.407538688193725
440,CO,PBE,400,2,11,0.1,-14.84172197,0.131424781,298.15,0.08993347281782937,-14.62036371618217,-1.144812342975661,100000.0,0.002050386517508892,-15.231686456377446
441,HCOOH,PBE,400,2,11,0.1,-30.31632562,0.8809684025000001,298.15,0.11309754750338874,-29.322259669996612,-3.9244514030036863,5714.155064883787,0.00282869565628132,-30.165635279916888
442,CH3OH,PBE,400,2,11,0.1,-30.47997071,1.3477713705,298.15,0.11819563796567878,-29.01400370153432,-2.0814769872284744,16938.450392599163,0.0026349609315054786,-29.79961730326268
443,CH4,PBE,400,2,11,0.1,-24.05756536,1.1766949780000002,298.15,0.10410911210045293,-22.77676126989955,-0.7762174598206185,100000.0,0.0019328183853913794,-23.353031071503988
444,C2H4,PBE,400,2,11,0.1,-32.05426004,1.3455079745,298.15,0.10920496888158326,-30.59954709661842,0.5420512987574153,100000.0,0.0022746379827957883,-31.277730411188983
445,C2H6,PBE,400,2,11,0.1,-40.54745155,1.9686433384999997,298.15,0.12144377798881756,-38.45736443351118,-0.8716184884019238,100000.0,0.0023655167570469124,-39.16264325462472
446,CH2O,PBE,400,2,11,0.1,-22.36072955,0.7034592749999999,298.15,0.10392967946315346,-21.553340595536845,,100000.0,0.0022698736783389457,-22.230103432733603
447,N2,PBE,400,2,11,0.1,-16.63500604,0.15067703650000003,298.15,0.08992642379729371,-16.394402579702707,0.0,100000.0,0.0019883816074642876,-16.987238555968183
448,NH3,PBE,400,2,11,0.1,-19.74344686,0.9027832820000001,298.15,0.10389796057391143,-18.736765617426087,-0.47700514290652546,100000.0,0.0019978807140767444,-19.33243375232807
449,H2O,PBE,400,2,11,1.0,-14.57044966,0.5578383625,298.15,0.10289320713148886,-13.90971809036851,-2.506445205454288,3166.74874006291,0.0022576802303521967,-14.582845451048017
450,H2,PBE,400,2,11,1.0,-6.77642451,0.2654507655,298.15,0.08992399696497677,-6.421049747535023,0.0,100000.0,0.001353370182118069,-6.824557067333526
451,O2,PBE,400,2,11,1.0,-9.86942853,0.097082304,298.15,0.09002546569263954,-9.68232076030736,0.0,100000.0,0.0021291957957653477,-10.317140486814798
452,H2O2,PBE,400,2,11,1.0,-18.57491044,0.6896585735,298.15,0.11577347132976801,-17.769478395170232,-1.4093333767692797,100000.0,0.002375132525151879,-18.477624157544266
453,CO2,PBE,400,2,11,1.0,-23.1462982,0.30324401199999995,298.15,0.09831946820567383,-22.744734719794327,-4.080562177045822,100000.0,0.0022237136996234256,-23.407734959337052
454,CO,PBE,400,2,11,1.0,-14.84177082,0.1314257795,298.15,0.08993347215325254,-14.620411568346748,-1.144812342975661,100000.0,0.0020503863688366504,-15.231734264215396
455,HCOOH,PBE,400,2,11,1.0,-30.31690202,0.8809344075,298.15,0.1130991711668975,-29.322868441333103,-3.9244514030036863,5714.155064883787,0.002828702588828957,-30.166246118192458
456,CH3OH,PBE,400,2,11,1.0,-30.48041523,1.347779341,298.15,0.1181957494735808,-29.014440139526418,-2.0814769872284744,16938.450392599163,0.002634964831996451,-29.800054904186158
457,CH4,PBE,400,2,11,1.0,-24.05757938,1.176750048,298.15,0.10410892189760435,-22.776720410102396,-0.7762174598206185,100000.0,0.0019328177411111962,-23.352990019614698
458,C2H4,PBE,400,2,11,1.0,-32.05434675,1.345502749,298.15,0.10920491361272999,-30.59963908738727,0.5420512987574153,100000.0,0.002274638139287943,-31.27782244861597
459,C2H6,PBE,400,2,11,1.0,-40.54746683,1.969082058,298.15,0.1214007213373074,-38.45698405066269,-0.8716184884019238,100000.0,0.0023652498887211516,-39.1621833049849
460,CH2O,PBE,400,2,11,1.0,-22.36115963,0.7034998100000001,298.15,0.10392976260802222,-21.553730057391977,,100000.0,0.0022698742597351707,-22.230493067932017
461,N2,PBE,400,2,11,1.0,-16.63512193,0.1505951855,298.15,0.08992643798607808,-16.394600306513922,0.0,100000.0,0.0019884026241137687,-16.98744254889344
462,NH3,PBE,400,2,11,1.0,-19.74379585,0.9027601525000001,298.15,0.1038981273310221,-18.73713757016898,-0.47700514290652546,100000.0,0.0019978821640940212,-19.33280613739361
463,H2O,PBE,400,2,12,0.0,-14.23221211,0.565598567,298.15,0.1028650604624598,-13.563748482537541,-2.506445205454288,3166.74874006291,0.0022570448316782533,-14.236686399102412
464,H2,PBE,400,2,12,0.0,-6.76213616,0.26642370899999995,298.15,0.08992399692578762,-6.405788454074212,0.0,100000.0,0.001353094217351635,-6.809213494977602
465,O2,PBE,400,2,12,0.0,-9.86603767,0.097142802,298.15,0.09002505164553523,-9.678869816354466,0.0,100000.0,0.0021293044168561016,-10.313721928240112
466,H2O2,PBE,400,2,12,0.0,-18.1706444,0.693924671,298.15,0.11541381216570334,-17.361305916834297,-1.4093333767692797,100000.0,0.0023726276493420653,-18.068704850485634
467,CO2,PBE,400,2,12,0.0,-23.01631373,0.30691246,298.15,0.09801024232930494,-22.611391027670695,-4.080562177045822,100000.0,0.002222355182440756,-23.273986225315408
468,CO,PBE,400,2,12,0.0,-14.80921155,0.13170119800000002,298.15,0.089933290589018,-14.587577061410983,-1.144812342975661,100000.0,0.0020504591814158317,-15.198921466350113
469,HCOOH,PBE,400,2,12,0.0,-29.95939855,0.8869507775000001,298.15,0.11281699920362431,-28.959630773296375,-3.9244514030036863,5714.155064883787,0.0028273254431418963,-29.802597854169132
470,CH3OH,PBE,400,2,12,0.0,-30.26954116,1.3554652820000002,298.15,0.11759445587912931,-28.79648142212087,-2.0814769872284744,16938.450392599163,0.002630425974745995,-29.58074292649139
471,CH4,PBE,400,2,12,0.0,-24.06300587,1.1856874535,298.15,0.10399555093414925,-22.773322865565852,-0.7762174598206185,100000.0,0.0019322347250682742,-23.349418648844956
472,C2H4,PBE,400,2,12,0.0,-32.03455025,1.3501471445000002,298.15,0.10925457016187234,-30.57514853533813,0.5420512987574153,100000.0,0.002274475080432322,-31.253283280569025
473,C2H6,PBE,400,2,12,0.0,-40.58356949,1.9800573085,298.15,0.12120205895510705,-38.482310122544895,-0.8716184884019238,100000.0,0.002364105174076111,-39.18716808019569
474,CH2O,PBE,400,2,12,0.0,-22.1746998,0.6985436839999999,298.15,0.10394057808407164,-21.372215537915928,,100000.0,0.002269551640058182,-22.048882359399276
475,N2,PBE,400,2,12,0.0,-16.62035684,0.150397724,298.15,0.08992647255513236,-16.380032643444867,0.0,100000.0,0.00198849430753087,-16.972902221235195
476,NH3,PBE,400,2,12,0.0,-19.54032077,0.9096836899999999,298.15,0.10386480289282718,-18.526772277107174,-0.47700514290652546,100000.0,0.0019975979450416225,-19.122356104421332
477,H2O,PBE,400,2,12,0.1,-14.57954373,0.557883172,298.15,0.10289301582652788,-13.918767542173471,-2.506445205454288,3166.74874006291,0.002257675994824663,-14.591893640030445