,formula,xc,encut,ispin,ivdw,concentration,potential_energy,ZPE_correction,temperature,Cp,enthalpy_calculated,enthalpy_experimental,pressure,entropy,free_energy
240,H2,PBE,400,1,10,1.0,-6.77644569,0.26544885549999997,298.15,0.08992399696505682,-6.421072837534943,0.0,100000.0,0.0013533704567150837,-6.824580239204545
241,O2,PBE,400,1,10,1.0,-9.86944153,0.0970825775,298.15,0.09002546381708514,-9.682333488682914,0.0,100000.0,0.0021291957570477287,-10.317153203646695
242,H2O2,PBE,400,1,10,1.0,-18.57872751,0.6898605550000001,298.15,0.11577395157065862,-17.77309300342934,-1.4093333767692797,100000.0,0.0023750593027803495,-18.481216934553302
243,CO2,PBE,400,1,10,1.0,-23.14641596,0.3032084045,298.15,0.09831681010576909,-22.74489074539423,-4.080562177045822,100000.0,0.0022237049068986403,-23.40788836338606
244,CO,PBE,400,1,10,1.0,-14.84109473,0.13142119400000002,298.15,0.08993347520562939,-14.61974006079437,-1.144812342975661,100000.0,0.002050388081004833,-15.231063267145961
245,HCOOH,PBE,400,1,10,1.0,-30.32029813,0.8815044145,298.15,0.11306549731614635,-29.325728218183855,-3.9244514030036863,5714.155064883787,0.002828529428189809,-30.169054267198646
246,CH3OH,PBE,400,1,10,1.0,-30.5008273,1.342593935,298.15,0.11851604962237516,-29.039717315377626,-2.0814769872284744,16938.450392599163,0.002637259835898585,-29.826016335450788
247,CH4,PBE,400,1,10,1.0,-24.07741371,1.169728934,298.15,0.10413660816664638,-22.803548167833352,-0.7762174598206185,100000.0,0.0019333098518387864,-23.379964500159083
248,C2H4,PBE,400,1,10,1.0,-32.07471979,1.3410922795000002,298.15,0.109318846017469,-30.624308664482534,0.5420512987574153,100000.0,0.0022753074983268527,-31.302691595108683
249,C2H6,PBE,400,1,10,1.0,-40.59037631,1.9563061735000002,298.15,0.12206817274800441,-38.512001963752,-0.8716184884019238,100000.0,0.0023691668935705967,-39.21836907307007
250,CH2O,PBE,400,1,10,1.0,-22.36674733,0.7022744649999999,298.15,0.10393150189974998,-21.56054136310025,,100000.0,0.002270026395995678,-22.23734973306636
251,N2,PBE,400,1,10,1.0,-16.63517933,0.15059735100000002,298.15,0.08992643760963229,-16.394655541390367,0.0,100000.0,0.001988402783940906,-16.98749783142235
252,NH3,PBE,400,1,10,1.0,-19.74769709,0.9013012644999999,298.15,0.1039098772459458,-18.742485948254053,-0.47700514290652546,100000.0,0.0019979729696933514,-19.338181589168126
253,H2O,PBE,400,1,11,0.0,-14.22255015,0.5655158225,298.15,0.10286514804360547,-13.554169179456395,-2.506445205454288,3166.74874006291,0.0022570527384410503,-14.227109453422594
254,H2,PBE,400,1,11,0.0,-6.75963035,0.266679152,298.15,0.0899239969159576,-6.4030272010840426,0.0,100000.0,0.0013530836491738966,-6.8064490910852395
255,O2,PBE,400,1,11,0.0,-9.85878435,0.09714178750000001,298.15,0.09002505857511701,-9.671617503924884,0.0,100000.0,0.002129304725658453,-10.306469707879952
256,H2O2,PBE,400,1,11,0.0,-18.15297592,0.6937016415,298.15,0.1154548974920454,-17.343819381007954,-1.4093333767692797,100000.0,0.0023729207618426213,-18.051305706151332
257,CO2,PBE,400,1,11,0.0,-22.99331319,0.306823691,298.15,0.09800198228417217,-22.588487516715826,-4.080562177045822,100000.0,0.0022223340820490514,-23.25107642327875
258,CO,PBE,400,1,11,0.0,-14.79793087,0.131715907,298.15,0.08993328098971734,-14.576281682010283,-1.144812342975661,100000.0,0.0020504559044397545,-15.187625109918995
259,HCOOH,PBE,400,1,11,0.0,-29.92360864,0.8863216045000001,298.15,0.11284219254554351,-28.924444842954458,-3.9244514030036863,5714.155064883787,0.0028275205829110727,-29.767470104749393
260,CH3OH,PBE,400,1,11,0.0,-30.23306509,1.3546397525000002,298.15,0.1175963787960499,-28.76082895870395,-2.0814769872284744,16938.450392599163,0.0026305036146784372,-29.545113611420327
261,CH4,PBE,400,1,11,0.0,-24.03281192,1.1850295015,298.15,0.10399782353199494,-22.743784594968005,-0.7762174598206185,100000.0,0.0019322961816947589,-23.319898701540296
262,C2H4,PBE,400,1,11,0.0,-31.98313959,1.349876812,298.15,0.10922981597278336,-30.524032962027217,0.5420512987574153,100000.0,0.002274408264577801,-31.202147786111087
263,C2H6,PBE,400,1,11,0.0,-40.52032639,1.979932399,298.15,0.12138735318719451,-38.41900663781281,-0.8716184884019238,100000.0,0.0023654852565365937,-39.124276067049195
264,CH2O,PBE,400,1,11,0.0,-22.15027679,0.6981916010000001,298.15,0.10394607412141477,-21.348139114878585,,100000.0,0.0022695785210549452,-22.024813950931115
265,N2,PBE,400,1,11,0.0,-16.60858991,0.150395351,298.15,0.08992647297350254,-16.368268086026497,0.0,100000.0,0.001988493908974901,-16.961137544987363
266,NH3,PBE,400,1,11,0.0,-19.52006295,0.9096820205,298.15,0.10386674703065069,-18.50651418246935,-0.47700514290652546,100000.0,0.001997593929052896,-19.10209681241647
267,H2O,PBE,400,1,11,0.1,-14.56988104,0.557953077,298.15,0.10289317154954836,-13.909034791450452,-2.506445205454288,3166.74874006291,0.0022576610540069987,-14.582156434702638
268,H2,PBE,400,1,11,0.1,-6.77641351,0.2654519735,298.15,0.08992399696492664,-6.421037539535074,0.0,100000.0,0.0013533699227996179,-6.82454478201778
269,O2,PBE,400,1,11,0.1,-9.86942266,0.097082419,298.15,0.09002546490401056,-9.68231477609599,0.0,100000.0,0.00212919590753277,-10.317134535926884
270,H2O2,PBE,400,1,11,0.1,-18.57417874,0.6905336369999999,298.15,0.11503221665384955,-17.76861288634615,-1.4093333767692797,100000.0,0.002370129888594014,-18.475267112630455
271,CO2,PBE,400,1,11,0.1,-23.14612823,0.303255976,298.15,0.0983178919738874,-22.74455436202611,-4.080562177045822,100000.0,0.0022237060207664803,-23.407552312117637
272,CO,PBE,400,1,11,0.1,-14.84103895,0.131421579,298.15,0.08993347494931342,-14.619683896050686,-1.144812342975661,100000.0,0.0020503882402631082,-15.231007149885132
273,HCOOH,PBE,400,1,11,0.1,-30.3162875,0.8815644965,298.15,0.11311489660628848,-29.321608106893713,-3.9244514030036863,5714.155064883787,0.0028287506376195987,-30.165000109499996
274,CH3OH,PBE,400,1,11,0.1,-30.47997175,1.347588492,298.15,0.11823961985141174,-29.01414363814859,-2.0814769872284744,16938.450392599163,0.0026352849305223045,-29.799853840183815
275,CH4,PBE,400,1,11,0.1,-24.05756919,1.1764196345,298.15,0.10410939260565066,-22.777040162894348,-0.7762174598206185,100000.0,0.0019328570481345975,-23.35332149179568
276,C2H4,PBE,400,1,11,0.1,-32.05426504,1.3452900294999999,298.15,0.10921578462592696,-30.59975922587407,0.5420512987574153,100000.0,0.0022746864335971588,-31.277956986051063
277,C2H6,PBE,400,1,11,0.1,-40.54744886,1.9683412984999997,298.15,0.12147018119739594,-38.45763738030261,-0.8716184884019238,100000.0,0.0023656581980356283,-39.16295837204693
278,CH2O,PBE,400,1,11,0.1,-22.36073642,0.7032937770000001,298.15,0.10393024671802453,-21.553512396281974,,100000.0,0.002269899830672798,-22.230283030797068
279,N2,PBE,400,1,11,0.1,-16.63513419,0.1505971515,298.15,0.08992643764431338,-16.394610600855685,0.0,100000.0,0.0019884028719556316,-16.987452917129257
280,NH3,PBE,400,1,11,0.1,-19.74349619,0.9023484985000001,298.15,0.10389210012897743,-18.73725559137102,-0.47700514290652546,100000.0,0.0019979308427160412,-19.332938672126808
281,H2O,PBE,400,1,11,1.0,-14.57045505,0.5579363605000001,298.15,0.10289320668898871,-13.90962548281101,-2.506445205454288,3166.74874006291,0.0022576638774535434,-14.582747967873784
282,H2,PBE,400,1,11,1.0,-6.77642451,0.2654507655,298.15,0.08992399696497677,-6.421049747535023,0.0,100000.0,0.001353370182118069,-6.824557067333526
283,O2,PBE,400,1,11,1.0,-9.86942853,0.097082304,298.15,0.09002546569263954,-9.68232076030736,0.0,100000.0,0.0021291957957653477,-10.317140486814798
284,H2O2,PBE,400,1,11,1.0,-18.57494257,0.6900719465,298.15,0.11546057172451696,-17.769410051775484,-1.4093333767692797,100000.0,0.0023730208250441784,-18.476926210762407
285,CO2,PBE,400,1,11,1.0,-23.14631389,0.303245509,298.15,0.09831903615680904,-22.74474934484319,-4.080562177045822,100000.0,0.00222371144945748,-23.40774891349894
286,CO,PBE,400,1,11,1.0,-14.84108516,0.1314210395,298.15,0.08993347530849077,-14.61973064519151,-1.144812342975661,100000.0,0.002050388099708968,-15.231053857119738
287,HCOOH,PBE,400,1,11,1.0,-30.31686375,0.8815359265,298.15,0.11311677736093251,-29.322211046139067,-3.9244514030036863,5714.155064883787,0.0028287586583296788,-30.16560544012006
288,CH3OH,PBE,400,1,11,1.0,-30.48041627,1.3475210215,298.15,0.11825011183163214,-29.014645136668367,-2.0814769872284744,16938.450392599163,0.0026353621758170133,-29.80037836938821
289,CH4,PBE,400,1,11,1.0,-24.05758321,1.1764062080000002,298.15,0.10410957407942623,-22.777067427920574,-0.7762174598206185,100000.0,0.0019328578960599954,-23.35334900963086
290,C2H4,PBE,400,1,11,1.0,-32.05435179,1.345284358,298.15,0.10921567701773394,-30.599851754982264,0.5420512987574153,100000.0,0.0022746864791602386,-31.27804952874389
291,C2H6,PBE,400,1,11,1.0,-40.54746404,1.9682614520000001,298.15,0.12147138281002867,-38.45773120518997,-0.8716184884019238,100000.0,0.0023656612302754864,-39.163053100996606
292,CH2O,PBE,400,1,11,1.0,-22.36116659,0.7033064465000001,298.15,0.10393016471348293,-21.553929978786517,,100000.0,0.002269899366734792,-22.230700474978494
293,N2,PBE,400,1,11,1.0,-16.63516019,0.150597416,298.15,0.08992643759833649,-16.394636336401664,0.0,100000.0,0.0019884027675353215,-16.98747862154232
294,NH3,PBE,400,1,11,1.0,-19.74384524,0.9023123120000001,298.15,0.10389299638440908,-18.73763993161559,-0.47700514290652546,100000.0,0.0019979353653843306,-19.333324360804927
295,H2O,PBE,400,1,12,0.0,-14.23222015,0.565539497,298.15,0.1028650823251166,-13.563815570674883,-2.506445205454288,3166.74874006291,0.002257051814280937,-14.236755569102744
296,H2,PBE,400,1,12,0.0,-6.76213616,0.26642370899999995,298.15,0.08992399692578762,-6.405788454074212,0.0,100000.0,0.001353094217351635,-6.809213494977602
297,O2,PBE,400,1,12,0.0,-9.86603767,0.097142802,298.15,0.09002505164553523,-9.678869816354466,0.0,100000.0,0.0021293044168561016,-10.313721928240112
298,H2O2,PBE,400,1,12,0.0,-18.17065139,0.6939209289999999,298.15,0.11549894637797653,-17.361231514622023,-1.4093333767692797,100000.0,0.0023731980893171188,-18.06880052495192
299,CO2,PBE,400,1,12,0.0,-23.01631387,0.3068771085,298.15,0.09800744386996046,-22.61142931763004,-4.080562177045822,100000.0,0.002222349299062188,-23.27402276114543
300,CO,PBE,400,1,12,0.0,-14.80910146,0.1317168095,298.15,0.08993328040105228,-14.587451370098949,-1.144812342975661,100000.0,0.0020504557317680403,-15.19879474652559
301,HCOOH,PBE,400,1,12,0.0,-29.95948782,0.8867935425,298.15,0.1128438160301477,-28.959850461469852,-3.9244514030036863,5714.155064883787,0.0028274786230319915,-29.80286321292684
302,CH3OH,PBE,400,1,12,0.0,-30.26954093,1.3555282384999998,298.15,0.11760086706842543,-28.796411824431576,-2.0814769872284744,16938.450392599163,0.0026304691315730067,-29.580686196010067
303,CH4,PBE,400,1,12,0.0,-24.06299914,1.1855485585,298.15,0.10399602668013119,-22.773454554819867,-0.7762174598206185,100000.0,0.0019322580689184697,-23.34955729806791
304,C2H4,PBE,400,1,12,0.0,-32.03455349,1.3501221495,298.15,0.10925522125570697,-30.575176119244293,0.5420512987574153,100000.0,0.0022744809912577098,-31.25331262678778
305,C2H6,PBE,400,1,12,0.0,-40.58357593,1.9805508745,298.15,0.12124849494716416,-38.48177656055284,-0.8716184884019238,100000.0,0.0023644112151511316,-39.18672576435015
306,CH2O,PBE,400,1,12,0.0,-22.17472309,0.6988090880000001,298.15,0.10394476742573822,-21.371969234574262,,100000.0,0.002269532922644633,-22.048630475460758
307,N2,PBE,400,1,12,0.0,-16.62037092,0.150395955,298.15,0.0899264728670102,-16.38004849213299,0.0,100000.0,0.0019884938121447816,-16.972917922223957
308,NH3,PBE,400,1,12,0.0,-19.54031807,0.9098110345,298.15,0.10386634058428845,-18.526640694915713,-0.47700514290652546,100000.0,0.0019975849783512396,-19.122220656211134
309,H2O,PBE,400,1,12,0.1,-14.57954912,0.557978086,298.15,0.10289307842577988,-13.91867795557422,-2.506445205454288,3166.74874006291,0.002257659957563946,-14.59179927192191
310,H2,PBE,400,1,12,0.1,-6.77892145,0.2651845695,298.15,0.0899239969761988,-6.4238128835238015,0.0,100000.0,0.0013533808783820539,-6.827323392413411
311,O2,PBE,400,1,12,0.1,-9.87667608,0.097083449,298.15,0.09002545784090842,-9.68956717315909,0.0,100000.0,0.0021291955958672856,-10.324386840066921
312,H2O2,PBE,400,1,12,0.1,-18.59187288,0.6901510390000001,298.15,0.1156912670247825,-17.786030573975218,-1.4093333767692797,100000.0,0.0023746014747120367,-18.49401800366061
313,CO2,PBE,400,1,12,0.1,-23.16914876,0.303310862,298.15,0.09832416369145847,-22.76751373430854,-4.080562177045822,100000.0,0.002223724813290044,-23.430517287390966
314,CO,PBE,400,1,12,0.1,-14.85220949,0.131422495,298.15,0.08993347433951085,-14.630853520660489,-1.144812342975661,100000.0,0.0020503880659158134,-15.242176722513289
315,HCOOH,PBE,400,1,12,0.1,-30.35192438,0.8813773195000001,298.15,0.11312146806895762,-29.357425592431042,-3.9244514030036863,5714.155064883787,0.002828761577522882,-30.20082085676949
316,CH3OH,PBE,400,1,12,0.1,-30.51642822,1.348400907,298.15,0.11829834816881957,-29.049728964831182,-2.0814769872284744,16938.450392599163,0.002635652878074973,-29.835548870429236
317,CH4,PBE,400,1,12,0.1,-24.08774562,1.1769370975000002,298.15,0.10410736246111929,-22.80670116003888,-0.7762174598206185,100000.0,0.0019328185661758794,-23.382971015544218
318,C2H4,PBE,400,1,12,0.1,-32.10563142,1.3455736455000002,298.15,0.1092447662670144,-30.650813008232987,0.5420512987574153,100000.0,0.002274770049893004,-31.329035698608585
319,C2H6,PBE,400,1,12,0.1,-40.61089499,1.9686496825000002,298.15,0.12159453474072324,-38.520650772759275,-0.8716184884019238,100000.0,0.002366349419918904,-39.2261778523081
320,CH2O,PBE,400,1,12,0.1,-22.38520952,0.7038397395000001,298.15,0.10392841127167884,-21.57744136922832,,100000.0,0.002269862746135247,-22.254200946988544
321,N2,PBE,400,1,12,0.1,-16.64691526,0.150597758,298.15,0.08992643753888882,-16.40639106446111,0.0,100000.0,0.001988402775717681,-16.999233352041337
322,NH3,PBE,400,1,12,0.1,-19.76375136,0.902475977,298.15,0.10389156666098198,-18.75738381633902,-0.47700514290652546,100000.0,0.001997921846628327,-19.353064214911253
323,H2O,PBE,400,1,12,1.0,-14.58012314,0.5579613179999999,298.15,0.1028931140433137,-13.919268707956686,-2.506445205454288,3166.74874006291,0.002257662783030761,-14.592390866717308
324,H2,PBE,400,1,12,1.0,-6.77893246,0.2651833535,298.15,0.08992399697625097,-6.423825109523749,0.0,100000.0,0.0013533811380445173,-6.827335695831722
325,O2,PBE,400,1,12,1.0,-9.87668195,0.09708335900000001,298.15,0.09002545845805529,-9.689573132541945,0.0,100000.0,0.0021291954834223225,-10.32439276592431
326,H2O2,PBE,400,1,12,1.0,-18.59262974,0.6901633415,298.15,0.11567925611904772,-17.786787142380952,-1.4093333767692797,100000.0,0.002374520046478828,-18.494750294238614
327,CO2,PBE,400,1,12,1.0,-23.16933444,0.303300623,298.15,0.09832528922896183,-22.76770852777104,-4.080562177045822,100000.0,0.002223730152405286,-23.430713672710674
328,CO,PBE,400,1,12,1.0,-14.85225572,0.1314219465,298.15,0.08993347470465601,-14.630900298795344,-1.144812342975661,100000.0,0.0020503879253515648,-15.242223458738913
329,HCOOH,PBE,400,1,12,1.0,-30.3525002,0.881343251,298.15,0.11312388017551867,-29.358033068824483,-3.9244514030036863,5714.155064883787,0.00282877228319284,-30.201431525058428
330,CH3OH,PBE,400,1,12,1.0,-30.51687281,1.3483949174999998,298.15,0.11829556135086472,-29.050182331149134,-2.0814769872284744,16938.450392599163,0.0026356325708732447,-29.835996182154993
331,CH4,PBE,400,1,12,1.0,-24.08775963,1.1769237195,298.15,0.10410754764743357,-22.806728362852567,-0.7762174598206185,100000.0,0.001932819428730003,-23.382998475528417
332,C2H4,PBE,400,1,12,1.0,-32.10571811,1.3455665549999998,298.15,0.10924471228294208,-30.650906842717056,0.5420512987574153,100000.0,0.0022747703206287806,-31.329129613812526
333,C2H6,PBE,400,1,12,1.0,-40.61091017,1.9686796850000001,298.15,0.12159432697411665,-38.52063615802588,-0.8716184884019238,100000.0,0.0023663473161558792,-39.22616261033775
334,CH2O,PBE,400,1,12,1.0,-22.38563965,0.703859675,298.15,0.10392825972176956,-21.577851715278232,,100000.0,0.0022698622845376965,-22.254611155413148
335,N2,PBE,400,1,12,1.0,-16.64694126,0.150598021,298.15,0.0899264374931765,-16.406416801506822,0.0,100000.0,0.0019884026712865856,-16.99925905795092
336,NH3,PBE,400,1,12,1.0,-19.76410042,0.9024397615,298.15,0.10389246072284852,-18.75776819777715,-0.47700514290652546,100000.0,0.0019979263677853327,-19.353449944332347
337,H2O,PBE,400,2,0,0.0,-14.22242056,0.5655939055,298.15,0.10286508189106602,-13.553961572608934,-2.506445205454288,3166.74874006291,0.002257044558553391,-14.226899407741627
338,H2,PBE,400,2,0,0.0,-6.75962723,0.266679709,298.15,0.08992399691593617,-6.403023524084064,0.0,100000.0,0.0013530836120444983,-6.806445403015132
339,O2,PBE,400,2,0,0.0,-9.85875797,0.097142651,298.15,0.09002505267691638,-9.671590266323083,0.0,100000.0,0.0021293045056387633,-10.30644240467928
340,H2O2,PBE,400,2,0,0.0,-18.14817898,0.693919687,298.15,0.11541231841323918,-17.33884697458676,-1.4093333767692797,100000.0,0.002372620317849115,-18.046243722353474
341,CO2,PBE,400,2,0,0.0,-22.99082222,0.3069022805,298.15,0.09800914972499897,-22.585910789775,-4.080562177045822,100000.0,0.00222235195865853,-23.248505026249042
342,CO,PBE,400,2,0,0.0,-14.79800866,0.1317020485,298.15,0.08993329003370154,-14.5763733214663,-1.144812342975661,100000.0,0.0020504592550077247,-15.187717748346852
343,HCOOH,PBE,400,2,0,0.0,-29.90970463,0.8868556265,298.15,0.11282161524218726,-28.910027388257813,-3.9244514030036863,5714.155064883787,0.002827355304505732,-29.753003372296195
344,CH3OH,PBE,400,2,0,0.0,-30.21792625,1.355416097,298.15,0.11756342024675615,-28.744946732753245,-2.0814769872284744,16938.450392599163,0.0026302036884459303,-29.5291419624634
345,CH4,PBE,400,2,0,0.0,-24.03075068,1.1857089985,298.15,0.10399594232730269,-22.741045739172698,-0.7762174598206185,100000.0,0.0019322389972741454,-23.317142796209986
346,C2H4,PBE,400,2,0,0.0,-31.97056906,1.3500074430000002,298.15,0.10925576135265902,-30.51130585564734,0.5420512987574153,100000.0,0.002274493589528557,-31.18944611936528
347,C2H6,PBE,400,2,0,0.0,-40.49391751,1.9798303060000002,298.15,0.1215443951817825,-38.39254280881822,-0.8716184884019238,100000.0,0.0023663724459410587,-39.09807675357555
348,CH2O,PBE,400,2,0,0.0,-22.14494332,0.698501268,298.15,0.10394194998464923,-21.34250010201535,,100000.0,0.0022695599325058186,-22.01916939589196
349,N2,PBE,400,2,0,0.0,-16.60855075,0.15039755500000002,298.15,0.08992647258492564,-16.368226722415073,0.0,100000.0,0.0019884943655979464,-16.961096317518102
350,NH3,PBE,400,2,0,0.0,-19.51954317,0.9096696620000001,298.15,0.10386473058853218,-18.506008777411466,-0.47700514290652546,100000.0,0.001997598368877661,-19.101592731092342
351,H2O,PBE,400,2,0,0.1,-14.56975221,0.5578923985,298.15,0.1028930549404502,-13.90896675655955,-2.506445205454288,3166.74874006291,0.0022576757845390915,-14.58209279171988
352,H2,PBE,400,2,0,0.1,-6.77641038,0.26545254949999997,298.15,0.08992399696490239,-6.421033833535097,0.0,100000.0,0.0013533698846691685,-6.82454106464921
353,O2,PBE,400,2,0,0.1,-9.86939635,0.0970832845,298.15,0.09002545896891692,-9.682287606531084,0.0,100000.0,0.002129195685994751,-10.317107300310418
354,H2O2,PBE,400,2,0,0.1,-18.56942962,0.6910963285,298.15,0.11496051814162422,-17.763372773358377,-1.4093333767692797,100000.0,0.002369613435190159,-18.469873019060323
355,CO2,PBE,400,2,0,0.1,-23.143637,0.303300134,298.15,0.09832327187259493,-22.742013594127403,-4.080562177045822,100000.0,0.0022237227672134005,-23.405016537172077
356,CO,PBE,400,2,0,0.1,-14.84168975,0.131425458,298.15,0.08993347236723076,-14.62033081963277,-1.144812342975661,100000.0,0.0020503864203587525,-15.231653530862731
357,HCOOH,PBE,400,2,0,0.1,-30.30231208,0.8812757090000001,298.15,0.11312630726075357,-29.307910063739246,-3.9244514030036863,5714.155064883787,0.0028287903951015217,-30.151313920038763
358,CH3OH,PBE,400,2,0,0.1,-30.46481354,1.3483519835000002,298.15,0.1182626069722077,-28.998198949527794,-2.0814769872284744,16938.450392599163,0.0026353935690851603,-29.783941542150533