,formula,xc,encut,ispin,ivdw,concentration,potential_energy,ZPE_correction,temperature,Cp,enthalpy_calculated,enthalpy_experimental,pressure,entropy,free_energy
1,H2O,PW91,400,1,0,0.0,-14.27797584,0.565950335,298.15,0.10286487883984219,-13.609160626160158,-2.506445205454288,3166.74874006291,0.002256842240680026,-14.282038140218907
2,H2,PW91,400,1,0,0.0,-6.78959274,0.267454372,298.15,0.08992399688723429,-6.4322143711127655,0.0,100000.0,0.0013527535300681553,-6.835537836102586
3,O2,PW91,400,1,0,0.0,-9.77640915,0.09674746299999999,298.15,0.09002778749881361,-9.589633899501186,0.0,100000.0,0.002129479638453269,-10.224538253706028
4,H2O2,PW91,400,1,0,0.0,-18.23155148,0.696250113,298.15,0.1141583408764163,-17.421143026123584,-1.4093333767692797,100000.0,0.002364289996483942,-18.12605608857527
5,CO2,PW91,400,1,0,0.0,-23.03350419,0.307131515,298.15,0.09802375633584681,-22.62834891866415,-4.080562177045822,100000.0,0.002222240295007111,-23.290909862620524
6,CO,PW91,400,1,0,0.0,-14.83544614,0.1316610245,298.15,0.08993331685682332,-14.613851798643177,-1.144812342975661,100000.0,0.002050280161791666,-15.225142828881362
7,HCOOH,PW91,400,1,0,0.0,-30.00403744,0.8874237865000001,298.15,0.11290499306182267,-29.00370866043818,-3.9244514030036863,5714.155064883787,0.0028276073661678306,-29.846759796661118
8,CH3OH,PW91,400,1,0,0.0,-30.33484572,1.3561293714999998,298.15,0.11779015910117252,-28.86092618939883,-2.0814769872284744,16938.450392599163,0.0026317657259124676,-29.64558714057963
9,CH4,PW91,400,1,0,0.0,-24.11818452,1.1862678965,298.15,0.10396970717140741,-22.827946916328592,-0.7762174598206185,100000.0,0.001931849476892227,-23.40392783786401
10,C2H4,PW91,400,1,0,0.0,-32.08181787,1.3511574055,298.15,0.10916392077136239,-30.62149654372864,0.5420512987574153,100000.0,0.0022737958949029325,-31.29942878979395
11,C2H6,PW91,400,1,0,0.0,-40.63419711,1.9817198285000004,298.15,0.12089761888107797,-38.531579662618924,-0.8716184884019238,100000.0,0.0023621360757982994,-39.23585053361818
12,CH2O,PW91,400,1,0,0.0,-22.22014744,0.70034177,298.15,0.1039283893032078,-21.415877280696794,,100000.0,0.0022691319894203033,-22.09241898334246
13,N2,PW91,400,1,0,0.0,-16.66381291,0.14887135950000002,298.15,0.08992675665994837,-16.425014793840052,0.0,100000.0,0.00198751362683503,-17.017591981680916
14,NH3,PW91,400,1,0,0.0,-19.58701663,0.9087292985000001,298.15,0.10388593958531345,-18.574401391914687,-0.47700514290652546,100000.0,0.001997405876719054,-19.169927954058473
15,H2O,PW91,400,1,0,0.1,-14.6275273,0.558223783,298.15,0.10289298403791747,-13.966410532962083,-2.506445205454288,3166.74874006291,0.0022574654605202857,-14.639473860016206
16,H2,PW91,400,1,0,0.1,-6.80653149,0.26617801500000005,298.15,0.08992399693542052,-6.45042947806458,0.0,100000.0,0.0013530551377425749,-6.853842867382529
17,O2,PW91,400,1,0,0.1,-9.78761544,0.0966441985,298.15,0.0900285139587193,-9.60094272754128,0.0,100000.0,0.002129389284061013,-10.235820142584071
18,H2O2,PW91,400,1,0,0.1,-18.65497573,0.6906346805,298.15,0.11533266422070254,-17.849008385279298,-1.4093333767692797,100000.0,0.002372142885348475,-18.556262786545947
19,CO2,PW91,400,1,0,0.1,-23.18970963,0.303287803,298.15,0.09833994320717199,-22.788081883792827,-4.080562177045822,100000.0,0.0022236431901393747,-23.451061100932883
20,CO,PW91,400,1,0,0.1,-14.87982287,0.1313361935,298.15,0.08993353196323564,-14.658553144536764,-1.144812342975661,100000.0,0.002050214535423984,-15.269824608273424
21,HCOOH,PW91,400,1,0,0.1,-30.40044791,0.8817969205,298.15,0.11315763324033878,-29.40549335625966,-3.9244514030036863,5714.155064883787,0.0028288037248066188,-30.248901186810755
22,CH3OH,PW91,400,1,0,0.1,-30.5838523,1.3490702810000001,298.15,0.11861217763256637,-29.116169841367434,-2.0814769872284744,16938.450392599163,0.002637981808495445,-29.90268411757035
23,CH4,PW91,400,1,0,0.1,-24.14302067,1.1780751255,298.15,0.10407447240000556,-22.860871072099993,-0.7762174598206185,100000.0,0.0019324213126704663,-23.437022486472692
24,C2H4,PW91,400,1,0,0.1,-32.15318518,1.347198313,298.15,0.10917821363776858,-30.696808653362233,0.5420512987574153,100000.0,0.0022741765594716736,-31.37485439456871
25,C2H6,PW91,400,1,0,0.1,-40.66175411,1.970755302,298.15,0.1212326981712486,-38.56976610982875,-0.8716184884019238,100000.0,0.00236399904322288,-39.27459242456565
26,CH2O,PW91,400,1,0,0.1,-22.43468935,0.7044710085000001,298.15,0.10390302160779585,-21.626315319892203,,100000.0,0.0022696154281920396,-22.30300115980766
27,N2,PW91,400,1,0,0.1,-16.69100185,0.14908353500000002,298.15,0.08992671531374344,-16.451991599686256,0.0,100000.0,0.0019874231615108757,-17.044541815290724
28,NH3,PW91,400,1,0,0.1,-19.81142471,0.902185038,298.15,0.10389015870933593,-18.805349513290665,-0.47700514290652546,100000.0,0.0019975848309542452,-19.40092943063967
29,H2O,PW91,400,1,0,1.0,-14.62810446,0.558216067,298.15,0.10289294603330212,-13.966995446966697,-2.506445205454288,3166.74874006291,0.0022574683641263045,-14.640059639730955
30,H2,PW91,400,1,0,1.0,-6.80654252,0.266176785,298.15,0.08992399693546799,-6.450441738064532,0.0,100000.0,0.0013530553882660028,-6.853855202076041
31,O2,PW91,400,1,0,1.0,-9.7876216,0.0966441255,298.15,0.09002851447402195,-9.600948960025978,0.0,100000.0,0.0021293891685203207,-10.235826340620312
32,H2O2,PW91,400,1,0,1.0,-18.65553977,0.6904422379999999,298.15,0.11572566622585545,-17.849371865774145,-1.4093333767692797,100000.0,0.0023747579635842683,-18.557405952616794
33,CO2,PW91,400,1,0,1.0,-23.18990002,0.30327789050000004,298.15,0.09834123235369535,-22.788280897146304,-4.080562177045822,100000.0,0.0022236493607520856,-23.451261954054537
34,CO,PW91,400,1,0,1.0,-14.87987058,0.1313358265,298.15,0.08993353220902109,-14.65860122129098,-1.144812342975661,100000.0,0.0020502143301024353,-15.26987262381102
35,HCOOH,PW91,400,1,0,1.0,-30.40102768,0.8817508570000001,298.15,0.1131582398781994,-29.4061185831218,-3.9244514030036863,5714.155064883787,0.002828805713667193,-30.24952700665167
36,CH3OH,PW91,400,1,0,1.0,-30.58430021,1.3490408019999998,298.15,0.11861399250648708,-29.11664541549351,-2.0814769872284744,16938.450392599163,0.002637996362564306,-29.90316403099206
37,CH4,PW91,400,1,0,1.0,-24.14303461,1.178046696,298.15,0.10407468065612147,-22.86091323334388,-0.7762174598206185,100000.0,0.0019324222357593483,-23.43706492293553
38,C2H4,PW91,400,1,0,1.0,-32.15327198,1.3471873575,298.15,0.10917817550440145,-30.696906446995598,0.5420512987574153,100000.0,0.002274176880064966,-31.374952283786968
39,C2H6,PW91,400,1,0,1.0,-40.66176928,1.970740695,298.15,0.12123333792718327,-38.56979524707282,-0.8716184884019238,100000.0,0.0023640027380504055,-39.27462266342255
40,CH2O,PW91,400,1,0,1.0,-22.43512722,0.7051270365,298.15,0.10390926772930209,-21.626090915770696,,100000.0,0.002269549044168839,-22.302756963289635
41,N2,PW91,400,1,0,1.0,-16.69102844,0.149083805,298.15,0.08992671526152313,-16.452017919738477,0.0,100000.0,0.001987423058920506,-17.044568104755626
42,NH3,PW91,400,1,0,1.0,-19.81177546,0.902211717,298.15,0.1038900649323794,-18.80567367806762,-0.47700514290652546,100000.0,0.0019975850937771567,-19.40125367377728
43,H2O,PW91,400,2,0,0.0,-14.27791042,0.5659315205,298.15,0.1028650508408826,-13.609113848659117,-2.506445205454288,3166.74874006291,0.002256844877310241,-14.281992148829165
44,H2,PW91,400,2,0,0.0,-6.78959274,0.267454372,298.15,0.08992399688723429,-6.4322143711127655,0.0,100000.0,0.0013527535300681553,-6.835537836102586
45,O2,PW91,400,2,0,0.0,-9.77640915,0.09674746299999999,298.15,0.09002778749881361,-9.589633899501186,0.0,100000.0,0.002129479638453269,-10.224538253706028
46,H2O2,PW91,400,2,0,0.0,-18.23032413,0.694479277,298.15,0.11537028828795137,-17.42047456471205,-1.4093333767692797,100000.0,0.002372285963359329,-18.127771624687632
47,CO2,PW91,400,2,0,0.0,-23.03345508,0.307166013,298.15,0.09799884477112264,-22.628290222228877,-4.080562177045822,100000.0,0.002222147112810649,-23.29082338391337
48,CO,PW91,400,2,0,0.0,-14.83526354,0.1318589035,298.15,0.08993318817738277,-14.613471448322617,-1.144812342975661,100000.0,0.0020502306003761643,-15.22474770182477
49,HCOOH,PW91,400,2,0,0.0,-30.00401918,0.8874639,298.15,0.11290602280313444,-29.003649257196866,-3.9244514030036863,5714.155064883787,0.002827606104083122,-29.846700017129248
50,CH3OH,PW91,400,2,0,0.0,-30.33479956,1.3560951245000004,298.15,0.11777634058724917,-28.86092809491275,-2.0814769872284744,16938.450392599163,0.0026316703495315734,-29.64556060962559
51,CH4,PW91,400,2,0,0.0,-24.11812049,1.1866830394999999,298.15,0.10397238047622559,-22.827465070023774,-0.7762174598206185,100000.0,0.0019318156263680329,-23.403435899025403
52,C2H4,PW91,400,2,0,0.0,-32.08174777,1.3509114100000001,298.15,0.10917695811328976,-30.62165940188671,0.5420512987574153,100000.0,0.002273845275443913,-31.299606370760312
53,C2H6,PW91,400,2,0,0.0,-40.63416125,1.982382196,298.15,0.1208207748632506,-38.53095827913675,-0.8716184884019238,100000.0,0.002361606603161837,-39.23507128786945
54,CH2O,PW91,400,2,0,0.0,-22.22004482,0.7001333345,298.15,0.10392676915802412,-21.415984716341974,,100000.0,0.0022691525307903934,-22.09253254339713
55,N2,PW91,400,2,0,0.0,-16.66380238,0.14885690650000002,298.15,0.0899267594989375,-16.425018714001062,0.0,100000.0,0.0019875179407458604,-17.01759718803444
56,NH3,PW91,400,2,0,0.0,-19.58697471,0.908745806,298.15,0.1038844821756928,-18.574344421824307,-0.47700514290652546,100000.0,0.001997397942214486,-19.169868618295556
57,H2O,PW91,400,2,0,0.1,-14.62743896,0.5582884465,298.15,0.10289297940379138,-13.966257534096208,-2.506445205454288,3166.74874006291,0.0022574688087331762,-14.639321859420004
58,H2,PW91,400,2,0,0.1,-6.80653149,0.26617801500000005,298.15,0.08992399693542052,-6.45042947806458,0.0,100000.0,0.0013530551377425749,-6.853842867382529
59,O2,PW91,400,2,0,0.1,-9.78761544,0.096644179,298.15,0.09002851409636758,-9.600942746903632,0.0,100000.0,0.0021293892845886805,-10.235820162103748
60,H2O2,PW91,400,2,0,0.1,-18.65482939,0.690005053,298.15,0.11563704342151138,-17.84918729357849,-1.4093333767692797,100000.0,0.0023742764598153132,-18.557077820072426
61,CO2,PW91,400,2,0,0.1,-23.18960565,0.30328715,298.15,0.0983324859380082,-22.787986014061993,-4.080562177045822,100000.0,0.002223616349002662,-23.450957228517137
62,CO,PW91,400,2,0,0.1,-14.87970402,0.1314542165,298.15,0.08993345324559587,-14.658316350254404,-1.144812342975661,100000.0,0.0020501678732161013,-15.269573901653786
63,HCOOH,PW91,400,2,0,0.1,-30.40035868,0.882377027,298.15,0.113175221179866,-29.404806431820134,-3.9244514030036863,5714.155064883787,0.002828861820863263,-30.248231583710517
64,CH3OH,PW91,400,2,0,0.1,-30.58382973,1.3487397329999997,298.15,0.11864455541285923,-29.116445441587143,-2.0814769872284744,16938.450392599163,0.002638210322623039,-29.9030278492772
65,CH4,PW91,400,2,0,0.1,-24.14296622,1.178519886,298.15,0.10407867890490885,-22.860367655095093,-0.7762174598206185,100000.0,0.001932366828537191,-23.436502825023457
66,C2H4,PW91,400,2,0,0.1,-32.15312208,1.346129148,298.15,0.10921444169832317,-30.69777849030168,0.5420512987574153,100000.0,0.0022743282231292824,-31.375869450027675
67,C2H6,PW91,400,2,0,0.1,-40.66170328,1.9704654090000002,298.15,0.12121115889900014,-38.570026712101,-0.8716184884019238,100000.0,0.0023638532758227687,-39.27480956628756
68,CH2O,PW91,400,2,0,0.1,-22.43464498,0.704539085,298.15,0.10390296645575647,-21.626202928544245,,100000.0,0.002269626785483451,-22.302892154636137
69,N2,PW91,400,2,0,0.1,-16.69101104,0.14907088150000003,298.15,0.0899267177621984,-16.4520134407378,0.0,100000.0,0.001987426887080083,-17.04456476712073
70,NH3,PW91,400,2,0,0.1,-19.81135506,0.9021999635,298.15,0.10389271496546049,-18.80526238153454,-0.47700514290652546,100000.0,0.0019975909343907788,-19.40084411862315
71,H2O,PW91,400,2,0,1.0,-14.62801608,0.5582622685,298.15,0.10289306257844721,-13.966860748921553,-2.506445205454288,3166.74874006291,0.002257471793082302,-14.639925964029041
72,H2,PW91,400,2,0,1.0,-6.80654252,0.266176785,298.15,0.08992399693546799,-6.450441738064532,0.0,100000.0,0.0013530553882660028,-6.853855202076041
73,O2,PW91,400,2,0,1.0,-9.7876216,0.096644141,298.15,0.09002851436460853,-9.600948944635391,0.0,100000.0,0.0021293891680984507,-10.235826325103943
74,H2O2,PW91,400,2,0,1.0,-18.65557627,0.6899540635,298.15,0.11557371565288233,-17.85004849084712,-1.4093333767692797,100000.0,0.0023738527861687482,-18.557812699043332
75,CO2,PW91,400,2,0,1.0,-23.18979612,0.3032797155,298.15,0.09833360139641956,-22.78818280310358,-4.080562177045822,100000.0,0.0022236216775985552,-23.451155606279592
76,CO,PW91,400,2,0,1.0,-14.87975159,0.13145449750000002,298.15,0.0899334530589471,-14.658363639441053,-1.144812342975661,100000.0,0.002050167731827277,-15.269621148685355
77,HCOOH,PW91,400,2,0,1.0,-30.40093829,0.882338595,298.15,0.11317729473839244,-29.405422400261607,-3.9244514030036863,5714.155064883787,0.0028288702273442847,-30.248850058544306
78,CH3OH,PW91,400,2,0,1.0,-30.58427776,1.3488704420000002,298.15,0.11863999132233505,-29.116767326677664,-2.0814769872284744,16938.450392599163,0.0026381902672108727,-29.903343754846585
79,CH4,PW91,400,2,0,1.0,-24.14298015,1.178632788,298.15,0.10407664429849972,-22.8602707177015,-0.7762174598206185,100000.0,0.0019323588813544262,-23.436403518177322
80,C2H4,PW91,400,2,0,1.0,-32.15320886,1.3461131955,298.15,0.10921457108289356,-30.697881093417106,0.5420512987574153,100000.0,0.0022743292568399008,-31.375972361343923
81,C2H6,PW91,400,2,0,1.0,-40.66171845,1.9708580945,298.15,0.12116096646232188,-38.56969938903768,-0.8716184884019238,100000.0,0.0023635348255014524,-39.27438729726094
82,CH2O,PW91,400,2,0,1.0,-22.43508444,0.7045625695,298.15,0.10390264585985975,-21.62661922464014,,100000.0,0.002269626920112348,-22.303308490871636
83,N2,PW91,400,2,0,1.0,-16.69103792,0.1490713755,298.15,0.08992671766657184,-16.452039826833428,0.0,100000.0,0.0019874267815281807,-17.044591121746056
84,NH3,PW91,400,2,0,1.0,-19.81170563,0.9021764969999999,298.15,0.10389310634748417,-18.805636026652515,-0.47700514290652546,100000.0,0.001997593247358978,-19.401218453352595
85,H2O,PW91,520,1,0,0.0,-14.27452848,0.5680188045,298.15,0.10286322317767416,-13.603646452322327,-2.506445205454288,3166.74874006291,0.002256643661081636,-14.276464759873816
86,H2,PW91,520,1,0,0.0,-6.80125016,0.269400442,298.15,0.08992399682198493,-6.441925721178015,0.0,100000.0,0.001352599318280597,-6.845203207923375
87,O2,PW91,520,1,0,0.0,-9.77715147,0.0967761265,298.15,0.09002758672922084,-9.590347756770779,0.0,100000.0,0.0021292965051304324,-10.225197509775418
88,H2O2,PW91,520,1,0,0.0,-18.21852761,0.6949805575000001,298.15,0.1153850717465188,-17.40816198075348,-1.4093333767692797,100000.0,0.00237242707589343,-18.115501113431105
89,CO2,PW91,520,1,0,0.0,-22.99680458,0.3067468205,298.15,0.09798532325849763,-22.5920724362415,-4.080562177045822,100000.0,0.0022220714682558945,-23.254583044501995
90,CO,PW91,520,1,0,0.0,-14.81412619,0.13203385599999998,298.15,0.08993307587045471,-14.592159258129545,-1.144812342975661,100000.0,0.0020502445623126974,-15.203439674383075
91,HCOOH,PW91,520,1,0,0.0,-29.96827129,0.8869017605000001,298.15,0.11296302137948777,-28.968406508120513,-3.9244514030036863,5714.155064883787,0.0028279512795202516,-29.811560182109474
92,CH3OH,PW91,520,1,0,0.0,-30.32714035,1.354880712,298.15,0.11783337869113808,-28.854426259308863,-2.0814769872284744,16938.450392599163,0.002631950751525572,-29.63914237587621
93,CH4,PW91,520,1,0,0.0,-24.12728218,1.1866841865,298.15,0.10396971046042491,-22.836628283039577,-0.7762174598206185,100000.0,0.0019316193247852977,-23.41254058472431
94,C2H4,PW91,520,1,0,0.0,-32.08461452,1.3510609595,298.15,0.10922074406361637,-30.624332816436386,0.5420512987574153,100000.0,0.0022739624644304065,-31.302314725206312
95,C2H6,PW91,520,1,0,0.0,-40.64581615,1.9787510035,298.15,0.12145331174758778,-38.545611834752414,-0.8716184884019238,100000.0,0.002365493964991152,-39.250883860414525
96,CH2O,PW91,520,1,0,0.0,-22.20499714,0.699093285,298.15,0.10394251875783311,-21.401961336242167,,100000.0,0.00226909060806536,-22.078490701036852
97,N2,PW91,520,1,0,0.0,-16.67163654,0.14926431650000002,298.15,0.08992668056995082,-16.43244554293005,0.0,100000.0,0.0019873084598072493,-17.02496156022158
98,NH3,PW91,520,1,0,0.0,-19.60813704,0.911791028,298.15,0.10392407827467276,-18.592421933725326,-0.47700514290652546,100000.0,0.001997022120521514,-19.187834078958815
99,H2O,PW91,520,1,0,0.1,-14.62360434,0.5609739545000001,298.15,0.10289156072009353,-13.959738824779906,-2.506445205454288,3166.74874006291,0.0022571943409168335,-14.63272131752426
100,H2,PW91,520,1,0,0.1,-6.81789823,0.268233383,298.15,0.08992399685998376,-6.459740850140016,0.0,100000.0,0.0013528939226076684,-6.863106173165493
101,O2,PW91,520,1,0,0.1,-9.78860005,0.096738751,298.15,0.09002784859615627,-9.601833450403843,0.0,100000.0,0.0021291807064519916,-10.236648678032504
102,H2O2,PW91,520,1,0,0.1,-18.64220114,0.6911829780000001,298.15,0.11617949312475107,-17.83483866887525,-1.4093333767692797,100000.0,0.0023780089838297143,-18.54384204740408
103,CO2,PW91,520,1,0,0.1,-23.1529512,0.30308903350000005,298.15,0.09831385244916024,-22.75154831405084,-4.080562177045822,100000.0,0.002223501471064823,-23.41448527764882
104,CO,PW91,520,1,0,0.1,-14.85681964,0.13191841099999999,298.15,0.08993314982460546,-14.634968079175394,-1.144812342975661,100000.0,0.0020501292005169996,-15.246214100309537
105,HCOOH,PW91,520,1,0,0.1,-30.36485847,0.8821343145,298.15,0.11316609651099796,-29.369558058989004,-3.9244514030036863,5714.155064883787,0.0028287879009916287,-30.212961171669658
106,CH3OH,PW91,520,1,0,0.1,-30.57578262,1.3482826220000002,298.15,0.11841742116350584,-29.109082576836492,-2.0814769872284744,16938.450392599163,0.002636322607425297,-29.895102162240345
107,CH4,PW91,520,1,0,0.1,-24.15168029,1.177246709,298.15,0.10407618592560497,-22.870357395074397,-0.7762174598206185,100000.0,0.001932198212962439,-23.446442292269147
108,C2H4,PW91,520,1,0,0.1,-32.155188,1.347055492,298.15,0.10921021223710436,-30.698922295762898,0.5420512987574153,100000.0,0.0022742595356323512,-31.376992776311685
109,C2H6,PW91,520,1,0,0.1,-40.67271262,1.9670232485,298.15,0.12159610860019243,-38.584093262899806,-0.8716184884019238,100000.0,0.002366106179733004,-39.2895478203872
110,CH2O,PW91,520,1,0,0.1,-22.41895822,0.70350902,298.15,0.10392559864982531,-21.611523601350175,,100000.0,0.0022695360852491657,-22.288185785167215
111,N2,PW91,520,1,0,0.1,-16.69915455,0.149474505,298.15,0.08992664072744874,-16.45975340427255,0.0,100000.0,0.00198721785059028,-17.052242406426043
112,NH3,PW91,520,1,0,0.1,-19.83085926,0.905115885,298.15,0.10388264527736701,-18.821860729722633,-0.47700514290652546,100000.0,0.0019971343592161614,-19.41730633892293
113,H2O,PW91,520,1,0,1.0,-14.62418519,0.5609774375000001,298.15,0.1028916207130397,-13.96031613178696,-2.506445205454288,3166.74874006291,0.0022571971909890166,-14.633299474280335
114,H2,PW91,520,1,0,1.0,-6.8179091,0.2682324425,298.15,0.08992399686001606,-6.4597526606399835,0.0,100000.0,0.0013528941723894442,-6.863118058137896
115,O2,PW91,520,1,0,1.0,-9.78860627,0.096738706,298.15,0.09002784891183248,-9.601839715088168,0.0,100000.0,0.0021291805907543665,-10.236654908221583
116,H2O2,PW91,520,1,0,1.0,-18.64267624,0.6910553115,298.15,0.11625705637262618,-17.835363872127374,-1.4093333767692797,100000.0,0.002378471599594813,-18.54450517954657
117,CO2,PW91,520,1,0,1.0,-23.15314226,0.30307954400000003,298.15,0.09831493167934635,-22.751747784320653,-4.080562177045822,100000.0,0.002223506591719249,-23.414686274641745
118,CO,PW91,520,1,0,1.0,-14.85686614,0.13191848650000002,298.15,0.08993314977604785,-14.635014503723951,-1.144812342975661,100000.0,0.002050129077544774,-15.246260488193926
119,HCOOH,PW91,520,1,0,1.0,-30.36541383,0.881946436,298.15,0.11309007505395718,-29.370377318946044,-3.9244514030036863,5714.155064883787,0.002828404030496723,-30.21366598063864
120,CH3OH,PW91,520,1,0,1.0,-30.57623352,1.348266521,298.15,0.11841271576274726,-29.10955428323725,-2.0814769872284744,16938.450392599163,0.0026362865591636466,-29.895563120851893