,formula,xc,encut,ispin,ivdw,concentration,potential_energy,ZPE_correction,temperature,Cp,enthalpy_calculated,enthalpy_experimental,pressure,entropy,free_energy
1,H2O,PW91,400,1,0,0.0,-14.28610571,0.5659171675,298.15,0.10286351746270872,-13.61732502503729,-2.506445205454288,3166.74874006291,0.0022567118790677537,-14.290163671781341
2,H2,PW91,400,1,0,0.0,-6.78996045,0.26749693550000003,298.15,0.0899239968857049,-6.432539517614295,0.0,100000.0,0.001352693893528704,-6.835845201969878
3,O2,PW91,400,1,0,0.0,-9.79443967,0.096674737,298.15,0.0900282986062056,-9.607736634393794,0.0,100000.0,0.002129536653745853,-10.24265798770812
4,H2O2,PW91,400,1,0,0.0,-18.26006268,0.6950838265,298.15,0.11554650455109738,-17.449432348948903,-1.4093333767692797,100000.0,0.0023735649243167103,-18.15711073113393
5,CO2,PW91,400,1,0,0.0,-23.04179952,0.30649352750000003,298.15,0.09802550140606914,-22.637280491093932,-4.080562177045822,100000.0,0.0022223103018917355,-23.299862307602954
6,CO,PW91,400,1,0,0.0,-14.84040473,0.1317902185,298.15,0.0899332326425854,-14.618681278857414,-1.144812342975661,100000.0,0.0020502342056945206,-15.229958607285235
7,HCOOH,PW91,400,1,0,0.0,-30.01537654,0.8879788145,298.15,0.1128194898001722,-29.014578235699826,-3.9244514030036863,5714.155064883787,0.0028272198219800927,-29.85751382562319
8,CH3OH,PW91,400,1,0,0.0,-30.34434724,1.3578584994999998,298.15,0.11739734076142216,-28.86909139973858,-2.0814769872284744,16938.450392599163,0.002629072433464657,-29.652949345776065
9,CH4,PW91,400,1,0,0.0,-24.11872481,1.1869855409999999,298.15,0.1039557242450635,-22.827783544754936,-0.7762174598206185,100000.0,0.0019317401901484262,-23.40373188244769
10,C2H4,PW91,400,1,0,0.0,-32.08571868,1.3553993585,298.15,0.1090583109975698,-30.62126101050243,0.5420512987574153,100000.0,0.002273234517401795,-31.299025881865774
11,C2H6,PW91,400,1,0,0.0,-40.63526607,1.9811762350000002,298.15,0.12109615042582011,-38.53299368457418,-0.8716184884019238,100000.0,0.0023635069032078796,-39.23767326776561
12,CH2O,PW91,400,1,0,0.0,-22.2288424,0.701896769,298.15,0.10390983161543343,-21.423035799384568,,100000.0,0.002269059110388197,-22.099555773146808
13,N2,PW91,400,1,0,0.0,-16.67768084,0.1488375765,298.15,0.08992676330043642,-16.438916500199564,0.0,100000.0,0.001987480653399371,-17.031483857010585
14,NH3,PW91,400,1,0,0.0,-19.59298434,0.9080978405,298.15,0.10391294680386132,-18.58097355269614,-0.47700514290652546,100000.0,0.0019975144265601454,-19.17653247897505
15,H2O,PW91,400,1,0,0.1,-14.63502341,0.558089634,298.15,0.10289415894448684,-13.974039617055514,-2.506445205454288,3166.74874006291,0.002257376139261299,-14.647076312976269
16,H2,PW91,400,1,0,0.1,-6.80691209,0.26635286750000003,298.15,0.08992399692854763,-6.450635225571452,0.0,100000.0,0.0013529849538025359,-6.854027689547678
17,O2,PW91,400,1,0,0.1,-9.80551266,0.0966241585,298.15,0.09002865551358946,-9.61885984598641,0.0,100000.0,0.0021294255602514476,-10.253748076775379
18,H2O2,PW91,400,1,0,0.1,-18.68388182,0.6892990784999999,298.15,0.1161360525529136,-17.878446688947086,-1.4093333767692797,100000.0,0.0023777874744635467,-18.587384024458395
19,CO2,PW91,400,1,0,0.1,-23.19780012,0.30314058499999996,298.15,0.09826215257856807,-22.796397382421432,-4.080562177045822,100000.0,0.00222332354890787,-23.459281298528314
20,CO,PW91,400,1,0,0.1,-14.8845968,0.13147286449999998,298.15,0.08993344086685715,-14.663190494633144,-1.144812342975661,100000.0,0.002050200116497115,-15.274457659366758
21,HCOOH,PW91,400,1,0,0.1,-30.4113743,0.8838522065000001,298.15,0.11304127443405876,-29.41448081906594,-3.9244514030036863,5714.155064883787,0.002828265427707447,-30.257728156336913
22,CH3OH,PW91,400,1,0,0.1,-30.59307143,1.3502645615,298.15,0.11854173950191571,-29.124265128998083,-2.0814769872284744,16938.450392599163,0.0026376291065735944,-29.910674247123
23,CH4,PW91,400,1,0,0.1,-24.1435785,1.1803879335,298.15,0.1040280951764605,-22.85916247132354,-0.7762174598206185,100000.0,0.0019321799095337938,-23.43524191135104
24,C2H4,PW91,400,1,0,0.1,-32.15716533,1.353273294,298.15,0.10895578054467325,-30.694936255455325,0.5420512987574153,100000.0,0.0022731095065889645,-31.372663854844824
25,C2H6,PW91,400,1,0,0.1,-40.66279023,1.9728110925000002,298.15,0.12125743546831069,-38.56872170203169,-0.8716184884019238,100000.0,0.0023643741320508098,-39.273659849502636
26,CH2O,PW91,400,1,0,0.1,-22.44260486,0.7072702435,298.15,0.10387509508202264,-21.631459521417977,,100000.0,0.002269471979576654,-22.30810259212875
27,N2,PW91,400,1,0,0.1,-16.70472089,0.14906336099999998,298.15,0.08992671921845705,-16.465730809781544,0.0,100000.0,0.001987389786125464,-17.058271074514852
28,NH3,PW91,400,1,0,0.1,-19.81692127,0.903480794,298.15,0.10383375414811269,-18.80960672185189,-0.47700514290652546,100000.0,0.0019974067105316398,-19.405133532596896
29,H2O,PW91,400,1,0,1.0,-14.63559922,0.558067454,298.15,0.10289419037030323,-13.974637575629696,-2.506445205454288,3166.74874006291,0.0022573800103564295,-14.647675425717466
30,H2,PW91,400,1,0,1.0,-6.80692314,0.266351768,298.15,0.08992399692858993,-6.45064737507141,0.0,100000.0,0.001352985206980719,-6.854039914532712
31,O2,PW91,400,1,0,1.0,-9.80551885,0.096624182,298.15,0.09002865534748428,-9.618866012652516,0.0,100000.0,0.0021294254182893705,-10.253754201115491
32,H2O2,PW91,400,1,0,1.0,-18.68324391,0.6883664835000001,298.15,0.11706458893519067,-17.87781283756481,-1.4093333767692797,100000.0,0.0023845285506234716,-18.588760024933197
33,CO2,PW91,400,1,0,1.0,-23.19799025,0.303132171,298.15,0.09826287914178666,-22.796595199858213,-4.080562177045822,100000.0,0.0022233269411261612,-23.45948012735498
34,CO,PW91,400,1,0,1.0,-14.88464449,0.1314723955,298.15,0.08993344117798807,-14.663238653322011,-1.144812342975661,100000.0,0.002050200001196561,-15.274505783678766
35,HCOOH,PW91,400,1,0,1.0,-30.41195321,0.8838299135,298.15,0.11304196450662263,-29.415081331993377,-3.9244514030036863,5714.155064883787,0.0028282677756093044,-30.258329369291292
36,CH3OH,PW91,400,1,0,1.0,-30.59351871,1.3503004095,298.15,0.11849815722419965,-29.124720143275802,-2.0814769872284744,16938.450392599163,0.0026373008728556332,-29.911031398517707
37,CH4,PW91,400,1,0,1.0,-24.14359245,1.180380432,298.15,0.10402818613454179,-22.859183831865458,-0.7762174598206185,100000.0,0.001932180388243654,-23.435263414620305
38,C2H4,PW91,400,1,0,1.0,-32.1572522,1.3532725715,298.15,0.10895553203761543,-30.695024096462387,0.5420512987574153,100000.0,0.0022731089133265483,-31.3727515189707
39,C2H6,PW91,400,1,0,1.0,-40.66280527,1.972800379,298.15,0.1212577466972593,-38.56874714430274,-0.8716184884019238,100000.0,0.0023643759187064986,-39.27368582446508
40,CH2O,PW91,400,1,0,1.0,-22.44304244,0.7072862155,298.15,0.10387502949972383,-21.631881195000275,,100000.0,0.00226947271533987,-22.30852448507886
41,N2,PW91,400,1,0,1.0,-16.7047473,0.1490636555,298.15,0.08992671916141592,-16.465756925338585,0.0,100000.0,0.001987389680906623,-17.058297158700896
42,NH3,PW91,400,1,0,1.0,-19.81727038,0.903477119,298.15,0.10383326411806026,-18.80995999688194,-0.47700514290652546,100000.0,0.0019974057387373506,-19.40548651788648
43,H2O,PW91,400,2,0,0.0,-14.28604797,0.5660558149999999,298.15,0.10286517254324723,-13.617126982456753,-2.506445205454288,3166.74874006291,0.0022567263868738534,-14.289969954703192
44,H2,PW91,400,2,0,0.0,-6.78996045,0.26749693550000003,298.15,0.0899239968857049,-6.432539517614295,0.0,100000.0,0.001352693893528704,-6.835845201969878
45,O2,PW91,400,2,0,0.0,-9.79443967,0.096674737,298.15,0.0900282986062056,-9.607736634393794,0.0,100000.0,0.002129536653745853,-10.24265798770812
46,H2O2,PW91,400,2,0,0.0,-18.25999216,0.694278599,298.15,0.11620641946636256,-17.449507141533637,-1.4093333767692797,100000.0,0.002378185205006221,-18.15856306040624
47,CO2,PW91,400,2,0,0.0,-23.04169717,0.30657166950000003,298.15,0.09801195751603431,-22.637113542983965,-4.080562177045822,100000.0,0.002222243267619284,-23.299675373224655
48,CO,PW91,400,2,0,0.0,-14.84035205,0.13175775150000002,298.15,0.08993325373496075,-14.61866104476504,-1.144812342975661,100000.0,0.0020502551549886183,-15.229944619224895
49,HCOOH,PW91,400,2,0,0.0,-30.01530718,0.8884208700000001,298.15,0.11277555813448437,-29.014110751865516,-3.9244514030036863,5714.155064883787,0.0028270152251298492,-29.85698534123798
50,CH3OH,PW91,400,2,0,0.0,-30.34430225,1.357245452,298.15,0.1176105593912995,-28.8694462386087,-2.0814769872284744,16938.450392599163,0.002630602465466733,-29.653760363687606
51,CH4,PW91,400,2,0,0.0,-24.11865983,1.187398426,298.15,0.10396130319826269,-22.827300100801736,-0.7762174598206185,100000.0,0.0019317394442898551,-23.403248216116758
52,C2H4,PW91,400,2,0,0.0,-32.08566446,1.3538932555,298.15,0.10910462531676135,-30.622666579183235,0.5420512987574153,100000.0,0.002273428375635218,-31.300489249378874
53,C2H6,PW91,400,2,0,0.0,-40.63521851,1.981574788,298.15,0.12108615895500519,-38.532557563044996,-0.8716184884019238,100000.0,0.0023634126004156183,-39.23720902985891
54,CH2O,PW91,400,2,0,0.0,-22.22878525,0.7009299120000001,298.15,0.10391833508072357,-21.423937002919278,,100000.0,0.002269097962616349,-22.10046856047334
55,N2,PW91,400,2,0,0.0,-16.67765283,0.1488190255,298.15,0.08992676695360649,-16.438907037546393,0.0,100000.0,0.0019874808313083167,-17.031474447400967
56,NH3,PW91,400,2,0,0.0,-19.59295163,0.9083681425,298.15,0.10388275936510871,-18.580700728134893,-0.47700514290652546,100000.0,0.001997389314803527,-19.176222352343565
57,H2O,PW91,400,2,0,0.1,-14.63492962,0.558056267,298.15,0.10289284248621611,-13.973980510513783,-2.506445205454288,3166.74874006291,0.002257379796483878,-14.647018296835451
58,H2,PW91,400,2,0,0.1,-6.80691209,0.26635286750000003,298.15,0.08992399692854763,-6.450635225571452,0.0,100000.0,0.0013529849538025359,-6.854027689547678
59,O2,PW91,400,2,0,0.1,-9.80551266,0.0966241585,298.15,0.09002865551358946,-9.61885984598641,0.0,100000.0,0.0021294255602514476,-10.253748076775379
60,H2O2,PW91,400,2,0,0.1,-18.68269486,0.688815477,298.15,0.1168080119522642,-17.877071371047737,-1.4093333767692797,100000.0,0.002382682037720218,-18.58746802059402
61,CO2,PW91,400,2,0,0.1,-23.19775459,0.303082371,298.15,0.09827213101690402,-22.796400087983095,-4.080562177045822,100000.0,0.0022233724395046175,-23.459298580821397
62,CO,PW91,400,2,0,0.1,-14.88454289,0.1315173025,298.15,0.0899334114329598,-14.66309217606704,-1.144812342975661,100000.0,0.0020501997428354515,-15.274359229393431
63,HCOOH,PW91,400,2,0,0.1,-30.41132377,0.8839123975,298.15,0.11310625780498784,-29.41430511469501,-3.9244514030036863,5714.155064883787,0.0028285736669619705,-30.25764435349972
64,CH3OH,PW91,400,2,0,0.1,-30.593026,1.3507379755,298.15,0.11803329415148367,-29.124254730348515,-2.0814769872284744,16938.450392599163,0.0026337909539358656,-29.909519503264494
65,CH4,PW91,400,2,0,0.1,-24.1435275,1.1803231825,298.15,0.10403811537259644,-22.859166202127405,-0.7762174598206185,100000.0,0.0019322251191932597,-23.435259121414877
66,C2H4,PW91,400,2,0,0.1,-32.15711275,1.3500263915000001,298.15,0.1091064275120015,-30.697979930988,0.5420512987574153,100000.0,0.002273775119311047,-31.375905982810586
67,C2H6,PW91,400,2,0,0.1,-40.66275972,1.9727181955,298.15,0.12127137531437948,-38.56877014918562,-0.8716184884019238,100000.0,0.0023643975914335908,-39.27371529107154
68,CH2O,PW91,400,2,0,0.1,-22.44255262,0.706965453,298.15,0.10388141749957791,-21.631705749500423,,100000.0,0.0022694768720931415,-22.308350278914993
69,N2,PW91,400,2,0,0.1,-16.70469257,0.1490361095,298.15,0.08992672450185679,-16.465729735998142,0.0,100000.0,0.001987390030880031,-17.058270073705025
70,NH3,PW91,400,2,0,0.1,-19.81689234,0.9036776850000001,298.15,0.1038219446934272,-18.80939271030657,-0.47700514290652546,100000.0,0.0019973671333711946,-19.404907721121194
71,H2O,PW91,400,2,0,1.0,-14.63550515,0.558048389,298.15,0.10289289342282049,-13.97456386757718,-2.506445205454288,3166.74874006291,0.0022573837808488083,-14.647602841837251
72,H2,PW91,400,2,0,1.0,-6.80692314,0.266351768,298.15,0.08992399692858993,-6.45064737507141,0.0,100000.0,0.001352985206980719,-6.854039914532712
73,O2,PW91,400,2,0,1.0,-9.80551885,0.096624182,298.15,0.09002865534748428,-9.618866012652516,0.0,100000.0,0.0021294254182893705,-10.253754201115491
74,H2O2,PW91,400,2,0,1.0,-18.68375832,0.6889249355,298.15,0.11669469845643587,-17.878138686043563,-1.4093333767692797,100000.0,0.002381796972628544,-18.588271453432764
75,CO2,PW91,400,2,0,1.0,-23.19794473,0.30309481650000003,298.15,0.09826828538047017,-22.79658162811953,-4.080562177045822,100000.0,0.0022233533556547946,-23.459474431108006
76,CO,PW91,400,2,0,1.0,-14.88459058,0.1315207985,298.15,0.08993340912120337,-14.663136372378796,-1.144812342975661,100000.0,0.0020501994662422115,-15.27440334323891
77,HCOOH,PW91,400,2,0,1.0,-30.41189962,0.8836554055,298.15,0.11313735048937523,-29.415106864010625,-3.9244514030036863,5714.155064883787,0.0028287340312889023,-30.25849391543941
78,CH3OH,PW91,400,2,0,1.0,-30.59347123,1.3506062525000002,298.15,0.11799862478285683,-29.12486635271714,-2.0814769872284744,16938.450392599163,0.002633578439674489,-29.910067764506092
79,CH4,PW91,400,2,0,1.0,-24.14354144,1.1803151939999998,298.15,0.10403821750687436,-22.859188028493126,-0.7762174598206185,100000.0,0.0019322256733525145,-23.435281113003178
80,C2H4,PW91,400,2,0,1.0,-32.15719963,1.3499035780000002,298.15,0.10911118558988431,-30.698184866410116,0.5420512987574153,100000.0,0.0022737960840410595,-31.37611716886696
81,C2H6,PW91,400,2,0,1.0,-40.66277479,1.9723857810000003,298.15,0.12132962127720459,-38.569059387722795,-0.8716184884019238,100000.0,0.0023647764631661693,-39.27411749021579
82,CH2O,PW91,400,2,0,1.0,-22.44299085,0.70705647,298.15,0.10388075263147678,-21.632053627368524,,100000.0,0.002269476375657707,-22.308698008770868
83,N2,PW91,400,2,0,1.0,-16.70471903,0.149019598,298.15,0.08992672770797469,-16.465772704292025,0.0,100000.0,0.001987389940183508,-17.058313014957736
84,NH3,PW91,400,2,0,1.0,-19.81724136,0.9033094934999999,298.15,0.10382613540862828,-18.810105731091372,-0.47700514290652546,100000.0,0.001997385242688327,-19.405626141198898
85,H2O,PW91,520,1,0,0.0,-14.28312609,0.5685847945,298.15,0.10286202299067737,-13.611679272509322,-2.506445205454288,3166.74874006291,0.0022564868634633983,-14.284450830850934
86,H2,PW91,520,1,0,0.0,-6.80172909,0.26948900400000003,298.15,0.08992399681923263,-6.442316089180768,0.0,100000.0,0.0013525408959011282,-6.845576157293689
87,O2,PW91,520,1,0,0.0,-9.79576884,0.0966979005,298.15,0.09002813555024029,-9.609042803949759,0.0,100000.0,0.0021293543198356536,-10.24390979440876
88,H2O2,PW91,520,1,0,0.0,-18.24950921,0.695843765,298.15,0.11574255353601193,-17.437922891463987,-1.4093333767692797,100000.0,0.0023748718846838455,-18.145990943882477
89,CO2,PW91,520,1,0,0.0,-23.00524658,0.30627054800000003,298.15,0.09800308768540994,-22.60097294431459,-4.080562177045822,100000.0,0.0022221912599493725,-23.263519268468496
90,CO,PW91,520,1,0,0.0,-14.81917662,0.132043885,298.15,0.08993306947382237,-14.597199665526178,-1.144812342975661,100000.0,0.002050208777420872,-15.20846941251421
91,HCOOH,PW91,520,1,0,0.0,-29.98007073,0.8881759094999999,298.15,0.1128605228760684,-28.979034297623933,-3.9244514030036863,5714.155064883787,0.0028273966437476305,-29.82202260695729
92,CH3OH,PW91,520,1,0,0.0,-30.33717702,1.3566177794999998,298.15,0.1175805466326938,-28.862978693867305,-2.0814769872284744,16938.450392599163,0.002630219436514247,-29.64717861886403
93,CH4,PW91,520,1,0,0.0,-24.12803153,1.1860281795,298.15,0.1039581442594999,-22.8380452062405,-0.7762174598206185,100000.0,0.0019315208646674652,-23.413928152041105
94,C2H4,PW91,520,1,0,0.0,-32.08873936,1.3552543315,298.15,0.10907931892826217,-30.624405709571736,0.5420512987574153,100000.0,0.002273265649883275,-31.302179863084433
95,C2H6,PW91,520,1,0,0.0,-40.64697997,1.97826754,298.15,0.12133015291524618,-38.54738227708475,-0.8716184884019238,100000.0,0.002364748128136953,-39.252431931488786
96,CH2O,PW91,520,1,0,0.0,-22.21397054,0.70042866,298.15,0.10392600018909093,-21.409615879810907,,100000.0,0.0022690069741541996,-22.086120309154982
97,N2,PW91,520,1,0,0.0,-16.68550293,0.149114127,298.15,0.08992670940319483,-16.446462093596804,0.0,100000.0,0.001987276767984957,-17.03896866197152
98,NH3,PW91,520,1,0,0.0,-19.61443824,0.911889454,298.15,0.10390548308038627,-18.598643302919612,-0.47700514290652546,100000.0,0.0019969493479613143,-19.194033751014278
99,H2O,PW91,520,1,0,0.1,-14.63156804,0.560875414,298.15,0.102893168538161,-13.967799457461838,-2.506445205454288,3166.74874006291,0.0022570799803436317,-14.640747853601292
100,H2,PW91,520,1,0,0.1,-6.81839033,0.26830192399999997,298.15,0.0899239968576604,-6.460164409142339,0.0,100000.0,0.001352827002951075,-6.863509780072202
101,O2,PW91,520,1,0,0.1,-9.80701731,0.096647858,298.15,0.09002848812962658,-9.620340963870374,0.0,100000.0,0.002129244131164697,-10.255175101577128
102,H2O2,PW91,520,1,0,0.1,-18.67206578,0.6911254170000001,298.15,0.11630905534060276,-17.864631307659398,-1.4093333767692797,100000.0,0.002378852973088128,-18.573886321585622
103,CO2,PW91,520,1,0,0.1,-23.16124181,0.302956418,298.15,0.09824006961228532,-22.760045322387715,-4.080562177045822,100000.0,0.002223202821971227,-23.422893243758438
104,CO,PW91,520,1,0,0.1,-14.86344156,0.1317910425,298.15,0.08993323210788667,-14.641717285392113,-1.144812342975661,100000.0,0.0020501507885941177,-15.25296974301145
105,HCOOH,PW91,520,1,0,0.1,-30.37625983,0.8845781465,298.15,0.11304731629519171,-29.378634367204807,-3.9244514030036863,5714.155064883787,0.002828256972552481,-30.22187918357133
106,CH3OH,PW91,520,1,0,0.1,-30.58552201,1.348531381,298.15,0.11890118852472842,-29.11808944047527,-2.0814769872284744,16938.450392599163,0.002640133565817919,-29.90524526312388
107,CH4,PW91,520,1,0,0.1,-24.15244604,1.180005122,298.15,0.10403188111002559,-22.868409036889975,-0.7762174598206185,100000.0,0.0019319112401610754,-23.444408373144
108,C2H4,PW91,520,1,0,0.1,-32.15940383,1.3534272660000002,298.15,0.10896366430259308,-30.69701289969741,0.5420512987574153,100000.0,0.0022730855676927784,-31.37473336170501
109,C2H6,PW91,520,1,0,0.1,-40.67403697,1.9694207664999999,298.15,0.12151021224308156,-38.58310599125692,-0.8716184884019238,100000.0,0.002365697979804372,-39.288438843935594
110,CH2O,PW91,520,1,0,0.1,-22.42717741,0.706302747,298.15,0.10388620699410345,-21.616988456005895,,100000.0,0.0022693947091121094,-22.29360848852767
111,N2,PW91,520,1,0,0.1,-16.71286781,0.1493307335,298.15,0.089926667916328,-16.47361040858367,0.0,100000.0,0.0019871858531255882,-17.066089870693066
112,NH3,PW91,520,1,0,0.1,-19.83678797,0.906880338,298.15,0.10383437374602933,-18.82607325825397,-0.47700514290652546,100000.0,0.0019968711040936854,-19.421440377939504
113,H2O,PW91,520,1,0,1.0,-14.63214762,0.5608528055,298.15,0.10289320172785354,-13.968401612772146,-2.506445205454288,3166.74874006291,0.0022570839531509093,-14.64135119340409
114,H2,PW91,520,1,0,1.0,-6.81840121,0.2683008115,298.15,0.08992399685769709,-6.460176401642303,0.0,100000.0,0.0013528272472139312,-6.863521845399137
115,O2,PW91,520,1,0,1.0,-9.80702357,0.09664782200000001,298.15,0.09002848838368525,-9.620347259616315,0.0,100000.0,0.002129244012641319,-10.255181361985324
116,H2O2,PW91,520,1,0,1.0,-18.67152944,0.689954889,298.15,0.1172600931105583,-17.864314457889442,-1.4093333767692797,100000.0,0.002385877564758431,-18.575663853822167
117,CO2,PW91,520,1,0,1.0,-23.16143261,0.3029478715,298.15,0.09824082061392292,-22.760243917886076,-4.080562177045822,100000.0,0.002223206330167229,-23.423092885225437
118,CO,PW91,520,1,0,1.0,-14.86348942,0.131790778,298.15,0.08993323227951772,-14.641765409720483,-1.144812342975661,100000.0,0.002050150663901761,-15.253017830162793
119,HCOOH,PW91,520,1,0,1.0,-30.376846,0.884580515,298.15,0.11304497264831037,-29.37922051235169,-3.9244514030036863,5714.155064883787,0.002828242473427361,-30.222461005804057
120,CH3OH,PW91,520,1,0,1.0,-30.5859722,1.348521496,298.15,0.11890022733732053,-29.11855047666268,-2.0814769872284744,16938.450392599163,0.0026401265005546832,-29.905704192803057