,formula,xc,encut,ispin,ivdw,concentration,potential_energy,ZPE_correction,temperature,Cp,enthalpy_calculated,enthalpy_experimental,pressure,entropy,free_energy
953,H2O,RPBE,400,1,12,1.0,-14.54917412,0.559148952,298.15,0.10288722773455128,-13.887137940265449,-2.506445205454288,3166.74874006291,0.0022576240806448608,-14.560248559909715
954,H2,RPBE,400,1,12,1.0,-7.00753601,0.266308766,298.15,0.0899239969302722,-6.651303247069728,0.0,100000.0,0.0013526299234400212,-7.05458985874337
955,O2,RPBE,400,1,12,1.0,-9.63877412,0.0956827785,298.15,0.09003552037260627,-9.453055821127395,0.0,100000.0,0.002130010928604615,-10.08811857949086
956,H2O2,RPBE,400,1,12,1.0,-18.37360016,0.6887689875,298.15,0.1160023982515006,-17.568828774248498,-1.4093333767692797,100000.0,0.0023775933813544674,-18.277708240899333
957,CO2,RPBE,400,1,12,1.0,-22.63029386,0.3007994825,298.15,0.09848263584176964,-22.23101174165823,-4.080562177045822,100000.0,0.002225070621352876,-22.89441654741459
958,CO,RPBE,400,1,12,1.0,-14.57625595,0.129978727,298.15,0.0899344852491232,-14.356342737750877,-1.144812342975661,100000.0,0.002051126971936466,-14.967886244433734
959,HCOOH,RPBE,400,1,12,1.0,-29.92937587,0.8810020010000001,298.15,0.11324906093321241,-28.93512480806679,-3.9244514030036863,5714.155064883787,0.002830183681120618,-29.7789440725929
960,CH3OH,RPBE,400,1,12,1.0,-30.44961333,1.349068429,298.15,0.11836563651565424,-28.982179264484344,-2.0814769872284744,16938.450392599163,0.002636895448460835,-29.76836964244294
961,CH4,RPBE,400,1,12,1.0,-24.23345936,1.1782064605,298.15,0.10406057648458522,-22.951192323015416,-0.7762174598206185,100000.0,0.0019328640771730957,-23.527475747624575
962,C2H4,RPBE,400,1,12,1.0,-32.10153263,1.3457357665,298.15,0.10924033050465343,-30.646556532995348,0.5420512987574153,100000.0,0.0022752397420125773,-31.3249192620764
963,C2H6,RPBE,400,1,12,1.0,-40.74580877,1.9708657825000002,298.15,0.12151947026958831,-38.65342351723041,-0.8716184884019238,100000.0,0.0023664998868348193,-39.358995458490206
964,CH2O,RPBE,400,1,12,1.0,-22.21875404,0.7019423650000001,298.15,0.10392245388715504,-21.412889221112845,,100000.0,0.0022705348995159655,-22.08984920140353
965,N2,RPBE,400,1,12,1.0,-16.34758185,0.1490911155,298.15,0.08992671384795789,-16.108564020652043,0.0,100000.0,0.0019890834028014576,-16.701609237197296
966,NH3,RPBE,400,1,12,1.0,-19.79897438,0.903100908,298.15,0.10384105881224925,-18.79203241318775,-0.47700514290652546,100000.0,0.0019980268710848973,-19.387744124801713
967,H2O,RPBE,400,2,0,0.0,-14.15599285,0.565750844,298.15,0.10286077185199016,-13.48738123414801,-2.506445205454288,3166.74874006291,0.002257160551433211,-14.160353652557822
968,H2,RPBE,400,2,0,0.0,-6.97822863,0.2687725005,298.15,0.0899239968420219,-6.619532132657978,0.0,100000.0,0.0013522865486128447,-7.022716367126898
969,O2,RPBE,400,2,0,0.0,-9.58090215,0.09574171699999999,298.15,0.09003507796036837,-9.395125355039632,0.0,100000.0,0.0021301187954520973,-10.030220273903675
970,H2O2,RPBE,400,2,0,0.0,-17.8415968,0.6914318724999999,298.15,0.11569172686214291,-17.03447320063786,-1.4093333767692797,100000.0,0.00237555176577273,-17.742743959602997
971,CO2,RPBE,400,2,0,0.0,-22.31184597,0.30412061599999995,298.15,0.09816048885069384,-21.909564865149306,-4.080562177045822,100000.0,0.0022237017505085293,-22.572561542063426
972,CO,RPBE,400,2,0,0.0,-14.45138063,0.13041679750000001,298.15,0.08993416775123875,-14.23102966474876,-1.144812342975661,100000.0,0.002051149434461565,-14.842579868633475
973,HCOOH,RPBE,400,2,0,0.0,-29.25998581,0.883677949,298.15,0.11315033161546051,-28.26315752938454,-3.9244514030036863,5714.155064883787,0.002829956647106522,-29.10690910371935
974,CH3OH,RPBE,400,2,0,0.0,-29.93291251,1.3541064575000001,298.15,0.11746920832888308,-28.461336844171118,-2.0814769872284744,16938.450392599163,0.0026304004630982743,-29.24559074224387
975,CH4,RPBE,400,2,0,0.0,-24.03271217,1.1859865185,298.15,0.10395939164726364,-22.742766259852736,-0.7762174598206185,100000.0,0.0019323834501868507,-23.318906385525946
976,C2H4,RPBE,400,2,0,0.0,-31.67146535,1.347992771,298.15,0.10924041356068548,-30.214232165439313,0.5420512987574153,100000.0,0.0022751338093229974,-30.892563310688963
977,C2H6,RPBE,400,2,0,0.0,-40.26247778,1.977988822,298.15,0.12215681574849002,-38.16233214225151,-0.8716184884019238,100000.0,0.002371534938929151,-38.86940528429324
978,CH2O,RPBE,400,2,0,0.0,-21.83118215,0.6978107204999999,298.15,0.10394891381867821,-21.029422515681322,,100000.0,0.0022701083915777423,-21.706255332630224
979,N2,RPBE,400,2,0,0.0,-16.24029828,0.1488494855,298.15,0.08992676095776408,-16.001522033542237,0.0,100000.0,0.001989186717534605,-16.59459805337518
980,NH3,RPBE,400,2,0,0.0,-19.46694694,0.9090054095,298.15,0.10380566058764695,-18.454135869912353,-0.47700514290652546,100000.0,0.0019978246006790005,-19.049787274604796
981,H2O,RPBE,400,2,0,0.1,-14.49510261,0.558366212,298.15,0.10288639665107013,-13.83385000134893,-2.506445205454288,3166.74874006291,0.0022577972162921983,-14.507012241386448
982,H2,RPBE,400,2,0,0.1,-6.99494999,0.267510769,298.15,0.08992399688520908,-6.637515224114791,0.0,100000.0,0.0013525791012091082,-7.040786683140286
983,O2,RPBE,400,2,0,0.1,-9.59175148,0.09566893600000001,298.15,0.09003562452838579,-9.406046919471613,0.0,100000.0,0.0021300152555176087,-10.041110967904189
984,H2O2,RPBE,400,2,0,0.1,-18.2505994,0.6886456595,298.15,0.11627549147923999,-17.44567824902076,-1.4093333767692797,100000.0,0.002379462682868077,-18.155115047917874
985,CO2,RPBE,400,2,0,0.1,-22.46487487,0.300622354,298.15,0.09845797382294358,-22.065794542177056,-4.080562177045822,100000.0,0.0022249965780225672,-22.729177271914484
986,CO,RPBE,400,2,0,0.1,-14.49588892,0.1299656095,298.15,0.08993449490569919,-14.275988815594301,-1.144812342975661,100000.0,0.002051128826022066,-14.88753287507278
987,HCOOH,RPBE,400,2,0,0.1,-29.64536031,0.879897213,298.15,0.11326246093527415,-28.652200636064727,-3.9244514030036863,5714.155064883787,0.0028303940145861547,-29.49608261151359
988,CH3OH,RPBE,400,2,0,0.1,-30.17479774,1.346892098,298.15,0.11857409730014146,-28.709331544699857,-2.0814769872284744,16938.450392599163,0.002638525313311396,-29.49600786686365
989,CH4,RPBE,400,2,0,0.1,-24.05625072,1.1772463795,298.15,0.10406367545717421,-22.774940665042827,-0.7762174598206185,100000.0,0.0019329439565454406,-23.35124790568685
990,C2H4,RPBE,400,2,0,0.1,-31.74072993,1.3441220244999998,298.15,0.1092332034789889,-30.287374702021012,0.5420512987574153,100000.0,0.0022754237945314623,-30.965792306360566
991,C2H6,RPBE,400,2,0,0.1,-40.28831206,1.9678275920000001,298.15,0.1217371447846165,-38.198747323215386,-0.8716184884019238,100000.0,0.0023682978726482728,-38.90485533394547
992,CH2O,RPBE,400,2,0,0.1,-22.04076629,0.701670925,298.15,0.10392524496234246,-21.235170120037658,,100000.0,0.002270552477992526,-21.91213534135113
993,N2,RPBE,400,2,0,0.1,-16.26708104,0.1490513715,298.15,0.08992672154167694,-16.028102946958324,0.0,100000.0,0.0019890931351070054,-16.621151065190478
994,NH3,RPBE,400,2,0,0.1,-19.68560225,0.9027236885000001,298.15,0.10383929578246764,-18.67903926571753,-0.47700514290652546,100000.0,0.001998054375256276,-19.27475917770019
995,H2O,RPBE,400,2,0,1.0,-14.49566427,0.5583459565,298.15,0.10288644088946186,-13.834431872610539,-2.506445205454288,3166.74874006291,0.002257799904548275,-14.507594914151607
996,H2,RPBE,400,2,0,1.0,-6.99496092,0.26750957799999997,298.15,0.08992399688525177,-6.637527345114748,0.0,100000.0,0.001352579354976217,-7.0407988798009065
997,O2,RPBE,400,2,0,1.0,-9.59175742,0.0956688515,298.15,0.09003562516448509,-9.406052943335515,0.0,100000.0,0.0021300151489718117,-10.04111696000146
998,H2O2,RPBE,400,2,0,1.0,-18.25153659,0.6882255515000001,298.15,0.11604957420155804,-17.447261464298442,-1.4093333767692797,100000.0,0.0023780244013958548,-18.156269439574615
999,CO2,RPBE,400,2,0,1.0,-22.46506168,0.3006129745,298.15,0.0984591648485792,-22.065989540651422,-4.080562177045822,100000.0,0.0022250022559644404,-22.72937396326722
1000,CO,RPBE,400,2,0,1.0,-14.49593703,0.129965314,298.15,0.08993449512333529,-14.276037220876665,-1.144812342975661,100000.0,0.0020511287143496937,-14.887581247060027
1001,HCOOH,RPBE,400,2,0,1.0,-29.64592271,0.8798782840000001,298.15,0.11326280779416109,-28.65278161820584,-3.9244514030036863,5714.155064883787,0.002830394575606271,-29.49666376092285
1002,CH3OH,RPBE,400,2,0,1.0,-30.17523605,1.3468176785,298.15,0.1185711890759924,-28.709847182424006,-2.0814769872284744,16938.450392599163,0.002638503447174602,-29.496516985199115
1003,CH4,RPBE,400,2,0,1.0,-24.05626385,1.177256871,298.15,0.104064579606022,-22.77494239939398,-0.7762174598206185,100000.0,0.0019329476598446448,-23.35125074417666
1004,C2H4,RPBE,400,2,0,1.0,-31.74081462,1.344034788,298.15,0.10923422218362155,-30.287545609816377,0.5420512987574153,100000.0,0.0022754284742172947,-30.965964609404264
1005,C2H6,RPBE,400,2,0,1.0,-40.28832664,1.9678696334999999,298.15,0.12171836676464087,-38.19873863973536,-0.8716184884019238,100000.0,0.00236820380884625,-38.90481860534287
1006,CH2O,RPBE,400,2,0,1.0,-22.04119481,0.7016992555,298.15,0.10392591249160732,-21.235569642008393,,100000.0,0.0022705566209552754,-21.91253609854621
1007,N2,RPBE,400,2,0,1.0,-16.26710723,0.149051693,298.15,0.08992672147935518,-16.028128815520645,0.0,100000.0,0.001989093019910718,-16.621176899407025
1008,NH3,RPBE,400,2,0,1.0,-19.68594801,0.902708699,298.15,0.10383946480277273,-18.679399846197228,-0.47700514290652546,100000.0,0.00199805610786705,-19.27512027475779
1009,H2O,RPBE,400,2,11,0.0,-14.15733916,0.5654982150000001,298.15,0.10286149009537282,-13.488979454904626,-2.506445205454288,3166.74874006291,0.002257154544220705,-14.16195008226403
1010,H2,RPBE,400,2,11,0.0,-6.97823536,0.2687690515,298.15,0.08992399684213442,-6.619542311657866,0.0,100000.0,0.0013522868570410597,-7.022726638084658
1011,O2,RPBE,400,2,11,0.0,-9.58106769,0.09573295799999999,298.15,0.09003514359975566,-9.395299588400244,0.0,100000.0,0.0021301210276808997,-10.030395172803305
1012,H2O2,RPBE,400,2,11,0.0,-17.8747777,0.6917054515,298.15,0.11466562929744029,-17.06840661920256,-1.4093333767692797,100000.0,0.002368720897566279,-17.774640754811944
1013,CO2,RPBE,400,2,11,0.0,-22.32963131,0.3040703235,298.15,0.09814052422368696,-21.927420462276313,-4.080562177045822,100000.0,0.0022236427639531686,-22.59039955234895
1014,CO,RPBE,400,2,11,0.0,-14.45149433,0.130411719,298.15,0.08993417137697748,-14.231148439623022,-1.144812342975661,100000.0,0.002051150171485614,-14.842698863251458
1015,HCOOH,RPBE,400,2,11,0.0,-29.33563895,0.884247257,298.15,0.1129835104828365,-28.338408182517163,-3.9244514030036863,5714.155064883787,0.002829315111782277,-29.181968483095048
1016,CH3OH,RPBE,400,2,11,0.0,-30.02299385,1.3536139545,298.15,0.11743293556437884,-28.55194695993562,-2.0814769872284744,16938.450392599163,0.0026305658269786224,-29.336250161249296
1017,CH4,RPBE,400,2,11,0.0,-24.05690374,1.1815064925000003,298.15,0.10396938453737747,-22.77142786296262,-0.7762174598206185,100000.0,0.0019327209427831083,-23.347668612053404
1018,C2H4,RPBE,400,2,11,0.0,-31.73670496,1.345536361,298.15,0.10923672339503265,-30.28193187560497,0.5420512987574153,100000.0,0.0022753043645212015,-30.960313871886964
1019,C2H6,RPBE,400,2,11,0.0,-40.38639283,1.9732955864999997,298.15,0.12146810186275414,-38.291629141637245,-0.8716184884019238,100000.0,0.0023669440351972984,-38.99733350573132
1020,CH2O,RPBE,400,2,11,0.0,-21.87255282,0.6973681635000001,298.15,0.10393913593032356,-21.071245520569676,,100000.0,0.002270212689279154,-21.748109433878255
1021,N2,RPBE,400,2,11,0.0,-16.24037324,0.14884726950000002,298.15,0.08992676139353065,-16.00159920910647,0.0,100000.0,0.0019891871253770953,-16.59467535053765
1022,NH3,RPBE,400,2,11,0.0,-19.47317656,0.907725048,298.15,0.10381017305405715,-18.46164133894594,-0.47700514290652546,100000.0,0.001997898148876872,-19.05731467203358
1023,H2O,RPBE,400,2,11,0.1,-14.49646989,0.558013068,298.15,0.10288736731962733,-13.835569454680373,-2.506445205454288,3166.74874006291,0.002257806365440937,-14.508734422536588
1024,H2,RPBE,400,2,11,0.1,-6.99495677,0.26750723249999997,298.15,0.0899239968853357,-6.637525540614664,0.0,100000.0,0.0013525794164425107,-7.040797093626999
1025,O2,RPBE,400,2,11,0.1,-9.59191631,0.095660071,298.15,0.09003569128163065,-9.40622054771837,0.0,100000.0,0.002130017501409743,-10.041285265763685
1026,H2O2,RPBE,400,2,11,0.1,-18.28415575,0.687452385,298.15,0.11584750308826153,-17.48085586191174,-1.4093333767692797,100000.0,0.0023766890109242923,-18.189465690518816
1027,CO2,RPBE,400,2,11,0.1,-22.4825988,0.30057328400000005,298.15,0.09843777795903674,-22.083587738040965,-4.080562177045822,100000.0,0.0022249354724192816,-22.746952249142772
1028,CO,RPBE,400,2,11,0.1,-14.49600203,0.129961572,298.15,0.08993449787971122,-14.276105960120288,-1.144812342975661,100000.0,0.002051129682332006,-14.887650274907577
1029,HCOOH,RPBE,400,2,11,0.1,-29.72015225,0.879963645,298.15,0.11316467956121568,-28.727023925438786,-3.9244514030036863,5714.155064883787,0.0028301369155698053,-29.570829246815922
1030,CH3OH,RPBE,400,2,11,0.1,-30.26530937,1.3473006855,298.15,0.1178616533445287,-28.800147031155472,-2.0814769872284744,16938.450392599163,0.0026336998541141923,-29.58538464265962
1031,CH4,RPBE,400,2,11,0.1,-24.0805367,1.172823667,298.15,0.10407349231831309,-22.803639540681687,-0.7762174598206185,100000.0,0.0019332849991484217,-23.38004846317779
1032,C2H4,RPBE,400,2,11,0.1,-31.80622034,1.341573748,298.15,0.10922391846283297,-30.355422673537166,0.5420512987574153,100000.0,0.0022755866875877715,-31.033888844441464
1033,C2H6,RPBE,400,2,11,0.1,-40.41296156,1.962751085,298.15,0.12178991709259246,-38.32842055790741,-0.8716184884019238,100000.0,0.002368777345060403,-39.03467152333717
1034,CH2O,RPBE,400,2,11,0.1,-22.08198993,0.7006326280000001,298.15,0.10391341575959334,-21.277443886240405,,100000.0,0.0022707151365631744,-21.954457604206716
1035,N2,RPBE,400,2,11,0.1,-16.26715581,0.14904808249999998,298.15,0.08992672217933365,-16.028181005320665,0.0,100000.0,0.001989093540970741,-16.621229244561093
1036,NH3,RPBE,400,2,11,0.1,-19.69177956,0.9013720495,298.15,0.10384438011112074,-18.68656313038888,-0.47700514290652546,100000.0,0.0019981430716494424,-19.28230948720116
1037,H2O,RPBE,400,2,11,1.0,-14.49703525,0.5579952645,298.15,0.10288742108409343,-13.836152564415906,-2.506445205454288,3166.74874006291,0.002257809294186197,-14.50931840547752
1038,H2,RPBE,400,2,11,1.0,-6.9949677,0.2675060405,298.15,0.08992399688537828,-6.637537662614622,0.0,100000.0,0.0013525796701959615,-7.040809291283548
1039,O2,RPBE,400,2,11,1.0,-9.59192225,0.095659989,298.15,0.09003569189927024,-9.40622656910073,0.0,100000.0,0.0021300173948395336,-10.041291255372137
1040,H2O2,RPBE,400,2,11,1.0,-18.28488715,0.687393326,298.15,0.11581916110087187,-17.481674662899128,-1.4093333767692797,100000.0,0.002376509960752129,-18.190231107697375
1041,CO2,RPBE,400,2,11,1.0,-22.48278552,0.300561463,298.15,0.09843883067776216,-22.083785226322238,-4.080562177045822,100000.0,0.002224940448254734,-22.747151220969386
1042,CO,RPBE,400,2,11,1.0,-14.49605014,0.1299615415,298.15,0.08993449790218139,-14.276154100597818,-1.144812342975661,100000.0,0.0020511295702784578,-14.88769838197634
1043,HCOOH,RPBE,400,2,11,1.0,-29.72071239,0.8799431315,298.15,0.11316550223275279,-28.727603756267246,-3.9244514030036863,5714.155064883787,0.0028301400230357314,-29.57141000413535
1044,CH3OH,RPBE,400,2,11,1.0,-30.26574765,1.3472789079999998,298.15,0.11787272195456922,-28.800596020045433,-2.0814769872284744,16938.450392599163,0.0026337813835220847,-29.585857939542542
1045,CH4,RPBE,400,2,11,1.0,-24.0805499,1.1726759759999998,298.15,0.10407531680515891,-22.803798607194842,-0.7762174598206185,100000.0,0.0019332923465143102,-23.380209720308084
1046,C2H4,RPBE,400,2,11,1.0,-31.80630537,1.3415013285,298.15,0.10922434044432605,-30.355579701055674,0.5420512987574153,100000.0,0.0022755886612795266,-31.034046460416164
1047,C2H6,RPBE,400,2,11,1.0,-40.41297654,1.9633162475,298.15,0.1217616030645523,-38.32789868943545,-0.8716184884019238,100000.0,0.0023686144506173666,-39.03410108788701
1048,CH2O,RPBE,400,2,11,1.0,-22.08241826,0.7006186640000001,298.15,0.10391395853305263,-21.277885637466948,,100000.0,0.002270722580584908,-21.954901574868337
1049,N2,RPBE,400,2,11,1.0,-16.26718194,0.1490502615,298.15,0.08992672175686534,-16.028204956743135,0.0,100000.0,0.001989093434686207,-16.621253164294828
1050,NH3,RPBE,400,2,11,1.0,-19.69212562,0.9013428845000001,298.15,0.10384452689679324,-18.686938208603205,-0.47700514290652546,100000.0,0.001998144671578039,-19.2826850424342
1051,H2O,RPBE,400,2,12,0.0,-14.20953481,0.564952559,298.15,0.10285997262291424,-13.541722278377085,-2.506445205454288,3166.74874006291,0.0022573187660619165,-14.214741868478445
1052,H2,RPBE,400,2,12,0.0,-6.99079423,0.267626781,298.15,0.08992399688106784,-6.633243452118932,0.0,100000.0,0.0013523350928044998,-7.036442160038593
1053,O2,RPBE,400,2,12,0.0,-9.62791749,0.0957556195,298.15,0.0900349738536621,-9.442126896646338,0.0,100000.0,0.0021301145635866797,-10.077220553779707
1054,H2O2,RPBE,400,2,12,0.0,-17.96344081,0.6918493975,298.15,0.11563551001924255,-17.15595590248076,-1.4093333767692797,100000.0,0.002375084200054485,-17.864087256727004
1055,CO2,RPBE,400,2,12,0.0,-22.4769896,0.304322239,298.15,0.09818256841421058,-22.07448479258579,-4.080562177045822,100000.0,0.0022237601719703164,-22.737498887858738
1056,CO,RPBE,400,2,12,0.0,-14.53172195,0.13042958999999998,298.15,0.08993415862383036,-14.31135820137617,-1.144812342975661,100000.0,0.002051147024890258,-14.9229076868472
1057,HCOOH,RPBE,400,2,12,0.0,-29.54416978,0.8857032665000001,298.15,0.11294613889077187,-28.54552037460923,-3.9244514030036863,5714.155064883787,0.0028287956850324898,-29.388925808101664
1058,CH3OH,RPBE,400,2,12,0.0,-30.2073136,1.3561393084999998,298.15,0.11747392468668294,-28.733700366813316,-2.0814769872284744,16938.450392599163,0.0026303335024488103,-29.517934300568427
1059,CH4,RPBE,400,2,12,0.0,-24.20992277,1.186404771,298.15,0.10395468839306621,-22.919563310606932,-0.7762174598206185,100000.0,0.00193236486304835,-23.4956978945248
1060,C2H4,RPBE,400,2,12,0.0,-32.03241758,1.3500793495,298.15,0.10926223644868882,-30.57307599405131,0.5420512987574153,100000.0,0.00227500342816806,-31.25136826615962
1061,C2H6,RPBE,400,2,12,0.0,-40.71943109,1.9826091424999996,298.15,0.1211338559688746,-38.615688091531126,-0.8716184884019238,100000.0,0.0023642965241471134,-39.32060310020559
1062,CH2O,RPBE,400,2,12,0.0,-22.00873824,0.6983226775,298.15,0.10394761050472767,-21.206467951995272,,100000.0,0.0022700506791385566,-21.883283561980434
1063,N2,RPBE,400,2,12,0.0,-16.32070943,0.1488629645,298.15,0.08992675830861888,-16.081919707191382,0.0,100000.0,0.001989184678259349,-16.674995119014408
1064,NH3,RPBE,400,2,12,0.0,-19.57995512,0.9092999995,298.15,0.10380453813374046,-18.56685058236626,-0.47700514290652546,100000.0,0.001997798014582346,-19.162494060413987
1065,H2O,RPBE,400,2,12,0.1,-14.54863498,0.5584044715,298.15,0.10288620716610919,-13.88734430133389,-2.506445205454288,3166.74874006291,0.0022577944755946488,-14.560505724232435
1066,H2,RPBE,400,2,12,0.1,-7.00752507,0.266310006,298.15,0.08992399693022379,-6.651291067069776,0.0,100000.0,0.0013526296679148297,-7.054577602558583
1067,O2,RPBE,400,2,12,0.1,-9.63876818,0.0956828515,298.15,0.09003551982357949,-9.45304980867642,0.0,100000.0,0.0021300110355711908,-10.088112598931971
1068,H2O2,RPBE,400,2,12,0.1,-18.37272544,0.688469883,298.15,0.11591913669182197,-17.568336420308178,-1.4093333767692797,100000.0,0.0023771398948239,-18.277080679949925
1069,CO2,RPBE,400,2,12,0.1,-22.63009401,0.3008200345,298.15,0.09848155207665871,-22.230792423423342,-4.080562177045822,100000.0,0.002225064834459906,-22.894195503817564
1070,CO,RPBE,400,2,12,0.1,-14.57622867,0.129979874,298.15,0.08993448440516616,-14.356314311594835,-1.144812342975661,100000.0,0.0020511260212077134,-14.967857534817915