,formula,xc,encut,ispin,ivdw,concentration,potential_energy,ZPE_correction,temperature,Cp,enthalpy_calculated,enthalpy_experimental,pressure,entropy,free_energy
597,CH4,PBE,520,1,11,0.0,-24.0436258,1.1841569515,298.15,0.10398937291056876,-22.755479475589432,-0.7762174598206185,100000.0,0.0019319533341399687,-23.331491362163263
598,C2H4,PBE,520,1,11,0.0,-31.99223024,1.351279582,298.15,0.10923869312461676,-30.531711964875385,0.5420512987574153,100000.0,0.0022742529995310175,-31.209780496685557
599,C2H6,PBE,520,1,11,0.0,-40.53425541,1.9765835980000002,298.15,0.12165756867596156,-38.43601424332404,-0.8716184884019238,100000.0,0.0023672164968363465,-39.14179984185579
600,CH2O,PBE,520,1,11,0.0,-22.14917408,0.6990057675,298.15,0.10394314483530309,-21.3462251676647,,100000.0,0.0022693696269151875,-22.022837721929463
601,N2,PBE,520,1,11,0.0,-16.65224666,0.1505885915,298.15,0.08992643913271439,-16.411731629367285,0.0,100000.0,0.0019878614525185405,-17.00441252143569
602,NH3,PBE,520,1,11,0.0,-19.54860896,0.9109578159999999,298.15,0.10391824615513545,-18.533732897844864,-0.47700514290652546,100000.0,0.001997200492751632,-19.129198224758763
603,H2O,PBE,520,1,11,0.1,-14.57839604,0.5606201425,298.15,0.10289182120021267,-13.914884076299787,-2.506445205454288,3166.74874006291,0.002257271280182185,-14.587889508486105
604,H2,PBE,520,1,11,0.1,-6.78893304,0.2675822185,298.15,0.08992399688265468,-6.431426824617345,0.0,100000.0,0.001353088757261078,-6.834850237594735
605,O2,PBE,520,1,11,0.1,-9.89632122,0.097159658,298.15,0.09002493657788228,-9.709136625422119,0.0,100000.0,0.0021290853676803915,-10.343923427796028
606,H2O2,PBE,520,1,11,0.1,-18.6012693,0.6899491285,298.15,0.1169530128108075,-17.79436715868919,-1.4093333767692797,100000.0,0.002383521001721179,-18.50501394535236
607,CO2,PBE,520,1,11,0.1,-23.12287493,0.3028155425,298.15,0.0982561784231345,-22.721803209076864,-4.080562177045822,100000.0,0.0022234267333854016,-23.38471788963572
608,CO,PBE,520,1,11,0.1,-14.83542692,0.1316489045,298.15,0.08993332479599347,-14.613844690704006,-1.144812342975661,100000.0,0.0020503482587851786,-15.225156024060807
609,HCOOH,PBE,520,1,11,0.1,-30.2990688,0.8835946675,298.15,0.11298580968173388,-29.302488322818267,-3.9244514030036863,5714.155064883787,0.0028281409542506696,-30.145698548328102
610,CH3OH,PBE,520,1,11,0.1,-30.48687094,1.3477314215000002,298.15,0.11901546526617368,-29.020124053233825,-2.0814769872284744,16938.450392599163,0.0026412215780804915,-29.807604266738522
611,CH4,PBE,520,1,11,0.1,-24.06796943,1.17765393,298.15,0.10406464479809863,-22.786250855201903,-0.7762174598206185,100000.0,0.0019324216664065512,-23.36240237504101
612,C2H4,PBE,520,1,11,0.1,-32.06285534,1.3498127755,298.15,0.109151587235081,-30.603890977264918,0.5420512987574153,100000.0,0.0022741675526138177,-31.281934033076727
613,C2H6,PBE,520,1,11,0.1,-40.56112097,1.9687270865000004,298.15,0.12183415857272717,-38.47055972492727,-0.8716184884019238,100000.0,0.002368335248189951,-39.17667887917511
614,CH2O,PBE,520,1,11,0.1,-22.35923476,0.7041423885000001,298.15,0.103920402118436,-21.551171969381564,,100000.0,0.002269778238157962,-22.22790635108836
615,N2,PBE,520,1,11,0.1,-16.67897755,0.150830895,298.15,0.08992639734696653,-16.438220257653033,0.0,100000.0,0.0019877706812470516,-17.03087408626684
616,NH3,PBE,520,1,11,0.1,-19.76981342,0.9054273765,298.15,0.10385661415307057,-18.760529429346928,-0.47700514290652546,100000.0,0.0019971664828937756,-19.355984616221708
617,H2O,PBE,520,1,11,1.0,-14.57897183,0.560599369,298.15,0.10289185035681236,-13.915480610643188,-2.506445205454288,3166.74874006291,0.0022572750089412574,-14.588487154559024
618,H2,PBE,520,1,11,1.0,-6.78894388,0.267581163,298.15,0.0899239968826917,-6.431438720117308,0.0,100000.0,0.0013530890001500727,-6.834862205512052
619,O2,PBE,520,1,11,1.0,-9.89632721,0.097159829,298.15,0.09002493541120479,-9.709142445588796,0.0,100000.0,0.00212908524283316,-10.343929210739503
620,H2O2,PBE,520,1,11,1.0,-18.60160122,0.689646698,298.15,0.11736840158522166,-17.794586120414777,-1.4093333767692797,100000.0,0.0023866368525938425,-18.50616189801563
621,CO2,PBE,520,1,11,1.0,-23.12306107,0.3027439725,298.15,0.09827153406704886,-22.72204556343295,-4.080562177045822,100000.0,0.0022235019152342856,-23.38498265946005
622,CO,PBE,520,1,11,1.0,-14.83547405,0.1316484195,298.15,0.08993332511382884,-14.613892305386171,-1.144812342975661,100000.0,0.0020503481560066117,-15.225203608099543
623,HCOOH,PBE,520,1,11,1.0,-30.29965309,0.8835931180000001,298.15,0.11298523035942432,-29.303074741640575,-3.9244514030036863,5714.155064883787,0.0028281355091524124,-30.146283343694368
624,CH3OH,PBE,520,1,11,1.0,-30.48731735,1.347719178,298.15,0.11901751081133427,-29.020580661188667,-2.0814769872284744,16938.450392599163,0.002641238049723347,-29.808065785713683
625,CH4,PBE,520,1,11,1.0,-24.06798315,1.1776467915,298.15,0.10406473221736601,-22.786271626282634,-0.7762174598206185,100000.0,0.0019324221520966207,-23.36242329093024
626,C2H4,PBE,520,1,11,1.0,-32.06294164,1.349811065,298.15,0.1091513031649507,-30.603979271835048,0.5420512987574153,100000.0,0.002274166953825755,-31.2820221491182
627,C2H6,PBE,520,1,11,1.0,-40.56113569,1.9687169765,298.15,0.1218345068717901,-38.47058420662821,-0.8716184884019238,100000.0,0.0023683373831121742,-39.1767039974031
628,CH2O,PBE,520,1,11,1.0,-22.35966537,0.7041562965,298.15,0.10392032028256792,-21.55158875321743,,100000.0,0.0022697790675374717,-22.228323382203726
629,N2,PBE,520,1,11,1.0,-16.67900368,0.15083118099999998,298.15,0.08992639729806934,-16.43824610170193,0.0,100000.0,0.0019877705848950233,-17.030899901588384
630,NH3,PBE,520,1,11,1.0,-19.77015938,0.9054211415,298.15,0.10385623377873165,-18.760882004721267,-0.47700514290652546,100000.0,0.001997165935764566,-19.356337028469472
631,H2O,PBE,520,1,12,0.0,-14.24220331,0.5680881505,298.15,0.10286293581751893,-13.571252223682482,-2.506445205454288,3166.74874006291,0.00225671331618183,-14.244091298902095
632,H2,PBE,520,1,12,0.0,-6.77493783,0.268593309,298.15,0.0899239968479123,-6.4164205241520875,0.0,100000.0,0.0013528150881299387,-6.819762342678029
633,O2,PBE,520,1,12,0.0,-9.89273598,0.09722119800000001,298.15,0.09002451756081847,-9.705490264439181,0.0,100000.0,0.0021291915978072064,-10.3403087393254
634,H2O2,PBE,520,1,12,0.0,-18.20060261,0.69607032,298.15,0.1158204834497849,-17.388711806550216,-1.4093333767692797,100000.0,0.0023752896455588608,-18.09690441437359
635,CO2,PBE,520,1,12,0.0,-22.99324228,0.30609676350000004,298.15,0.09804445949991814,-22.589101057000082,-4.080562177045822,100000.0,0.0022225320970933786,-23.251749001748472
636,CO,PBE,520,1,12,0.0,-14.80317189,0.1318074995,298.15,0.08993322143525864,-14.581431169064741,-1.144812342975661,100000.0,0.00205039278812189,-15.192755778843283
637,HCOOH,PBE,520,1,12,0.0,-29.94221658,0.886997552,298.15,0.11296087992087367,-28.942258148079127,-3.9244514030036863,5714.155064883787,0.002828018186240438,-29.78543177030671
638,CH3OH,PBE,520,1,12,0.0,-30.27725849,1.3556573605,298.15,0.11751679355158418,-28.804084335948417,-2.0814769872284744,16938.450392599163,0.002629862037219517,-29.588177702345416
639,CH4,PBE,520,1,12,0.0,-24.07382966,1.18467243,298.15,0.1039875726262478,-22.785169657373753,-0.7762174598206185,100000.0,0.001931916351583119,-23.36117051759826
640,C2H4,PBE,520,1,12,0.0,-32.04367308,1.351541817,298.15,0.10926193598184253,-30.582869327018155,0.5420512987574153,100000.0,0.002274318108045525,-31.26095727093193
641,C2H6,PBE,520,1,12,0.0,-40.59768638,1.9769564505000001,298.15,0.12174836095585317,-38.498981568544146,-0.8716184884019238,100000.0,0.0023677044377957757,-39.20491264667296
642,CH2O,PBE,520,1,12,0.0,-22.17364392,0.6996098975,298.15,0.10394199975365148,-21.37009202274635,,100000.0,0.00226932274668986,-22.04669059967193
643,N2,PBE,520,1,12,0.0,-16.66402805,0.1505891895,298.15,0.0899264390287049,-16.423512421471294,0.0,100000.0,0.001987861356842983,-17.01619328501403
644,NH3,PBE,520,1,12,0.0,-19.56886631,0.911092503,298.15,0.10391709784658587,-18.553856709153415,-0.47700514290652546,100000.0,0.0019971895654688535,-19.149318778097953
645,H2O,PBE,520,1,12,0.1,-14.58806417,0.560642004,298.15,0.10289172533780899,-13.924530440662192,-2.506445205454288,3166.74874006291,0.0022572708984372513,-14.597535759031258
646,H2,PBE,520,1,12,0.1,-6.79143934,0.2673315605,298.15,0.08992399689167624,-6.434183782608324,0.0,100000.0,0.0013530982101134534,-6.83761001395365
647,O2,PBE,520,1,12,0.1,-9.90357484,0.097160585,298.15,0.09002493025342342,-9.716389324746576,0.0,100000.0,0.002129085071004191,-10.351176038666475
648,H2O2,PBE,520,1,12,0.1,-18.62012193,0.691052038,298.15,0.11654750937163039,-17.81252238262837,-1.4093333767692797,100000.0,0.0023804733093292898,-18.522260499804897
649,CO2,PBE,520,1,12,0.1,-23.14589588,0.30286719400000006,298.15,0.09826187315284773,-22.744766812847153,-4.080562177045822,100000.0,0.002223443627521857,-23.407686530392795
650,CO,PBE,520,1,12,0.1,-14.8465977,0.131649781,298.15,0.08993332422162062,-14.62501459477838,-1.144812342975661,100000.0,0.0020503480934288246,-15.236325878834183
651,HCOOH,PBE,520,1,12,0.1,-30.33460349,0.8842367335000001,298.15,0.11299644620134308,-29.337370310298656,-3.9244514030036863,5714.155064883787,0.0028281360493840335,-30.180579073422507
652,CH3OH,PBE,520,1,12,0.1,-30.52332189,1.3485023065,298.15,0.11909321433416631,-29.055726369165832,-2.0814769872284744,16938.450392599163,0.00264176371238432,-29.843368220013218
653,CH4,PBE,520,1,12,0.1,-24.09816285,1.178173795,298.15,0.10406269362479681,-22.815926361375205,-0.7762174598206185,100000.0,0.0019323837966761918,-23.39206659035421
654,C2H4,PBE,520,1,12,0.1,-32.11426897,1.3498489825000002,298.15,0.10916274050868235,-30.655257246991315,0.5420512987574153,100000.0,0.0022742136878839514,-31.333314058033917
655,C2H6,PBE,520,1,12,0.1,-40.6245563,1.969222006,298.15,0.12199542156349952,-38.5333388724365,-0.8716184884019238,100000.0,0.002369286087431145,-39.2397415194041
656,CH2O,PBE,520,1,12,0.1,-22.38373478,0.7047452430000001,298.15,0.1039190273105084,-21.575070509689493,,100000.0,0.0022697324943854033,-22.251791252890502
657,N2,PBE,520,1,12,0.1,-16.690759,0.15083149499999998,298.15,0.08992639724437829,-16.45000110775562,0.0,100000.0,0.0019877705853844035,-17.04265490778798
658,NH3,PBE,520,1,12,0.1,-19.79007539,0.9055652285,298.15,0.10385552942710641,-18.780654632072892,-0.47700514290652546,100000.0,0.001997155390339204,-19.376106511702524
659,H2O,PBE,520,1,12,1.0,-14.58863997,0.5606212245000001,298.15,0.1028917546354472,-13.925126990864552,-2.506445205454288,3166.74874006291,0.0022572746248595336,-14.598133420266421
660,H2,PBE,520,1,12,1.0,-6.79145017,0.2673304955,298.15,0.08992399689171515,-6.434195677608285,0.0,100000.0,0.0013530984531492662,-6.837621981414738
661,O2,PBE,520,1,12,1.0,-9.90358082,0.097160862,298.15,0.09002492836366734,-9.716395029636333,0.0,100000.0,0.002129084951396585,-10.351181707895226
662,H2O2,PBE,520,1,12,1.0,-18.6193399,0.689867656,298.15,0.11729534025048294,-17.812176903749517,-1.4093333767692797,100000.0,0.002386070361021241,-18.523583781888
663,CO2,PBE,520,1,12,1.0,-23.14608205,0.3027930095,298.15,0.0982778240162967,-22.745011216483704,-4.080562177045822,100000.0,0.0022235217434600865,-23.40795422429633
664,CO,PBE,520,1,12,1.0,-14.84664483,0.131649279,298.15,0.08993332455057812,-14.625062226449423,-1.144812342975661,100000.0,0.002050347995485609,-15.236373481303456
665,HCOOH,PBE,520,1,12,1.0,-30.33518311,0.8841998605000001,298.15,0.11299186325610999,-29.33799138624389,-3.9244514030036863,5714.155064883787,0.0028281160385677353,-30.18119418314286
666,CH3OH,PBE,520,1,12,1.0,-30.52376838,1.348493447,298.15,0.11909425732910872,-29.05618067567089,-2.0814769872284744,16938.450392599163,0.0026417724368477504,-29.843825127717047
667,CH4,PBE,520,1,12,1.0,-24.09817656,1.1781659445000001,298.15,0.10406279228806681,-22.815947823211932,-0.7762174598206185,100000.0,0.0019323843263521988,-23.39208821011384
668,C2H4,PBE,520,1,12,1.0,-32.11435514,1.3498480235,298.15,0.10916249094059238,-30.655344625559408,0.5420512987574153,100000.0,0.00227421312748789,-31.33340126951992
669,C2H6,PBE,520,1,12,1.0,-40.62457102,1.9692119585000003,298.15,0.1219957435534309,-38.533363317946566,-0.8716184884019238,100000.0,0.002369288025576499,-39.2397665427722
670,CH2O,PBE,520,1,12,1.0,-22.38416536,0.7047586600000001,298.15,0.10391893444278766,-21.575487765557213,,100000.0,0.002269733346763498,-22.25220876289475
671,N2,PBE,520,1,12,1.0,-16.69078513,0.1508317795,298.15,0.0899263971957385,-16.45002695330426,0.0,100000.0,0.001987770489363533,-17.042680724707996
672,NH3,PBE,520,1,12,1.0,-19.79042141,0.905559021,298.15,0.10385514971562615,-18.781007239284374,-0.47700514290652546,100000.0,0.001997154842297187,-19.37645895551528
673,H2O,PBE,520,2,0,0.0,-14.2324103,0.568269686,298.15,0.10286332326809844,-13.561277290731901,-2.506445205454288,3166.74874006291,0.002256708336762256,-14.234114881337568
674,H2,PBE,520,2,0,0.0,-6.77243046,0.26883437,298.15,0.0899239968400054,-6.413672093159994,0.0,100000.0,0.0013528056625415038,-6.817011101446744
675,O2,PBE,520,2,0,0.0,-9.88545622,0.0972210265,298.15,0.09002451872617076,-9.69821067477383,0.0,100000.0,0.002129191684385935,-10.333029175473495
676,H2O2,PBE,520,2,0,0.0,-18.17810923,0.6952414550000001,298.15,0.11575125414925713,-17.367116520850743,-1.4093333767692797,100000.0,0.002374863339174714,-18.075182025425683
677,CO2,PBE,520,2,0,0.0,-22.96774913,0.3060685995,298.15,0.0980458785046473,-22.563634651995354,-4.080562177045822,100000.0,0.002222541434832899,-23.226285380790785
678,CO,PBE,520,2,0,0.0,-14.79196798,0.131805996,298.15,0.08993322240979637,-14.570228761590204,-1.144812342975661,100000.0,0.0020503932278047618,-15.181553502460194
679,HCOOH,PBE,520,2,0,0.0,-29.89252562,0.8868583555,298.15,0.11298823991421192,-28.89267902458579,-3.9244514030036863,5714.155064883787,0.00282816018248455,-29.735894982993557
680,CH3OH,PBE,520,2,0,0.0,-30.22564112,1.3557151084999999,298.15,0.11747038805490129,-28.752455623445098,-2.0814769872284744,16938.450392599163,0.002629516843088264,-29.536446070211863
681,CH4,PBE,520,2,0,0.0,-24.04157257,1.1849653075,298.15,0.10398569932998991,-22.75262156317001,-0.7762174598206185,100000.0,0.0019319224874094067,-23.328624252791123
682,C2H4,PBE,520,2,0,0.0,-31.97968011,1.3513923380000001,298.15,0.10925982172313908,-30.51902795027686,0.5420512987574153,100000.0,0.002274319478808802,-31.197116302883707
683,C2H6,PBE,520,2,0,0.0,-40.50781289,1.9774293109999999,298.15,0.12174294117533613,-38.40864063782466,-0.8716184884019238,100000.0,0.0023677360399019308,-39.11458113812142
684,CH2O,PBE,520,2,0,0.0,-22.1438852,0.6996684375,298.15,0.1039418648976651,-21.340274897602335,,100000.0,0.0022693234452902233,-22.016873682815614
685,N2,PBE,520,2,0,0.0,-16.65222104,0.150474479,298.15,0.08992645906057073,-16.41182010193943,0.0,100000.0,0.0019878616496466794,-17.00450105278159
686,NH3,PBE,520,2,0,0.0,-19.54808927,0.9113371825000001,298.15,0.10390571122643744,-18.53284637627356,-0.47700514290652546,100000.0,0.0019971435211364724,-19.1282947171004
687,H2O,PBE,520,2,0,0.1,-14.57827122,0.560513924,298.15,0.10289221655255287,-13.914865079447447,-2.506445205454288,3166.74874006291,0.002257272411809682,-14.587870849028503
688,H2,PBE,520,2,0,0.1,-6.78892992,0.26758276599999997,298.15,0.0899239968826352,-6.431423157117365,0.0,100000.0,0.0013530887226219182,-6.83484655976709
689,O2,PBE,520,2,0,0.1,-9.89629504,0.0971605145,298.15,0.0900249307343964,-9.709109594765604,0.0,100000.0,0.002129085154082338,-10.343896333455252
690,H2O2,PBE,520,2,0,0.1,-18.59786783,0.691433311,298.15,0.11619264937476437,-17.790241869625234,-1.4093333767692797,100000.0,0.0023779313631705585,-18.499222105554537
691,CO2,PBE,520,2,0,0.1,-23.12039327,0.30292445,298.15,0.09824729991891246,-22.71922152008109,-4.080562177045822,100000.0,0.0022233750186027943,-23.38212078187751
692,CO,PBE,520,2,0,0.1,-14.83539537,0.131606154,298.15,0.08993335285298262,-14.613855863147018,-1.144812342975661,100000.0,0.0020503505823764533,-15.225167889282558
693,HCOOH,PBE,520,2,0,0.1,-30.28498819,0.8834896195000002,298.15,0.11316428056124694,-29.288334289938753,-3.9244514030036863,5714.155064883787,0.0028289665976374678,-30.131790681024363
694,CH3OH,PBE,520,2,0,0.1,-30.47170626,1.3494578014999998,298.15,0.11860772453225188,-29.00364073396775,-2.0814769872284744,16938.450392599163,0.0026380132360586226,-29.790164380298627
695,CH4,PBE,520,2,0,0.1,-24.06590545,1.1790393725000001,298.15,0.10405678253582096,-22.782809294964178,-0.7762174598206185,100000.0,0.0019323561882567102,-23.358941292492915
696,C2H4,PBE,520,2,0,0.1,-32.0503235,1.349080976,298.15,0.10911660265589851,-30.5921259213441,0.5420512987574153,100000.0,0.002274143632260485,-31.270161845302564
697,C2H6,PBE,520,2,0,0.1,-40.53467822,1.9712338050000002,298.15,0.12192499602722906,-38.441519418972774,-0.8716184884019238,100000.0,0.0023689121602600005,-39.147810579554296
698,CH2O,PBE,520,2,0,0.1,-22.3539785,0.705108746,298.15,0.10391576687387227,-21.544953987126128,,100000.0,0.002269722638467737,-22.221671791785283
699,N2,PBE,520,2,0,0.1,-16.67895234,0.15070001300000002,298.15,0.08992641982906036,-16.438325907170938,0.0,100000.0,0.0019877706915355045,-17.03097973885225
700,NH3,PBE,520,2,0,0.1,-19.76929204,0.9063207705,298.15,0.10384421756401241,-18.759127051935987,-0.47700514290652546,100000.0,0.0019971138672350572,-19.35456655145212
701,H2O,PBE,520,2,0,1.0,-14.57884628,0.560394589,298.15,0.1028930823860138,-13.915558608613987,-2.506445205454288,3166.74874006291,0.002257279515963281,-14.588566496298439
702,H2,PBE,520,2,0,1.0,-6.78894075,0.26758171,298.15,0.08992399688267216,-6.431435043117328,0.0,100000.0,0.0013530889655913648,-6.834858518208393
703,O2,PBE,520,2,0,1.0,-9.89630103,0.09716034100000001,298.15,0.09002493191807695,-9.709115757081923,0.0,100000.0,0.002129085046419299,-10.343902463671837
704,H2O2,PBE,520,2,0,1.0,-18.59755743,0.690571893,298.15,0.11632711599518464,-17.790658421004814,-1.4093333767692797,100000.0,0.0023790013143184453,-18.49995766286886
705,CO2,PBE,520,2,0,1.0,-23.12057943,0.3027823225,298.15,0.09827767702336548,-22.719519430476634,-4.080562177045822,100000.0,0.0022235238560885185,-23.382463068169425
706,CO,PBE,520,2,0,1.0,-14.8354425,0.1315984835,298.15,0.08993335789591886,-14.61391065860408,-1.144812342975661,100000.0,0.0020503504668102604,-15.225222650283559
707,HCOOH,PBE,520,2,0,1.0,-30.28557172,0.8831131535000001,298.15,0.11319818336681031,-29.28926038313319,-3.9244514030036863,5714.155064883787,0.002829125793259149,-30.132764238393406
708,CH3OH,PBE,520,2,0,1.0,-30.47215282,1.3487342035,298.15,0.11909755228494956,-29.004321064215052,-2.0814769872284744,16938.450392599163,0.0026418349616913897,-29.79198415804334
709,CH4,PBE,520,2,0,1.0,-24.06591916,1.1790305455,298.15,0.10405688474210861,-22.78283172975789,-0.7762174598206185,100000.0,0.0019323567123211917,-23.358963883536454
710,C2H4,PBE,520,2,0,1.0,-32.05040973,1.34908074,298.15,0.10911629790579425,-30.592212692094204,0.5420512987574153,100000.0,0.0022741428034678,-31.270248368948128
711,C2H6,PBE,520,2,0,1.0,-40.53469291,1.969293613,298.15,0.12198577937583144,-38.443413517624165,-0.8716184884019238,100000.0,0.00236923646431766,-39.14980136946048
712,CH2O,PBE,520,2,0,1.0,-22.35440895,0.7051250655000001,298.15,0.10391559227302483,-21.545368292226975,,100000.0,0.002269723179907059,-22.222086258316263
713,N2,PBE,520,2,0,1.0,-16.67897842,0.1507547175,298.15,0.08992641040698848,-16.43829729209301,0.0,100000.0,0.001987770548257262,-17.030951081055914
714,NH3,PBE,520,2,0,1.0,-19.76963805,0.9063237925000001,298.15,0.1038434532927115,-18.75947080420729,-0.47700514290652546,100000.0,0.001997111614348189,-19.3549096320252
715,H2O,PBE,520,2,10,0.0,-14.23324823,0.5679933294999999,298.15,0.10286405763422857,-13.56239084286577,-2.506445205454288,3166.74874006291,0.0022567120853722055,-14.235229551119494
716,H2,PBE,520,2,10,0.0,-6.77245466,0.268831985,298.15,0.08992399684008429,-6.413698678159916,0.0,100000.0,0.001352805952940042,-6.817037773028989