,formula,xc,encut,ispin,ivdw,concentration,potential_energy,ZPE_correction,temperature,Cp,enthalpy_calculated,enthalpy_experimental,pressure,entropy,free_energy
240,H2,PBE,400,1,10,1.0,-6.77755117,0.2654909775,298.15,0.08992399696330083,-6.422136195536699,0.0,100000.0,0.0013532563895483516,-6.82560958808054
241,O2,PBE,400,1,10,1.0,-9.89439812,0.097002583,298.15,0.09002601383464545,-9.707369523165355,0.0,100000.0,0.002129270085241057,-10.342211399079975
242,H2O2,PBE,400,1,10,1.0,-18.61475341,0.6877991905,298.15,0.11694128047951025,-17.81001293902049,-1.4093333767692797,100000.0,0.00238351543297971,-18.52065806536339
243,CO2,PBE,400,1,10,1.0,-23.15963742,0.30295268200000003,298.15,0.09829660090127568,-22.758388137098724,-4.080562177045822,100000.0,0.002223640895013741,-23.42136666994707
244,CO,PBE,400,1,10,1.0,-14.85712221,0.1313323915,298.15,0.08993353450978867,-14.635856283990211,-1.144812342975661,100000.0,0.0020503906000034463,-15.247180241381239
245,HCOOH,PBE,400,1,10,1.0,-30.33716459,0.8826147849999999,298.15,0.11298078681236268,-29.341569018187638,-3.9244514030036863,5714.155064883787,0.002828201392978725,-30.184797263504244
246,CH3OH,PBE,400,1,10,1.0,-30.51499824,1.344189751,298.15,0.11872285295692286,-29.052085636043078,-2.0814769872284744,16938.450392599163,0.0026390270795168557,-29.838911559801033
247,CH4,PBE,400,1,10,1.0,-24.07922681,1.1717378535000003,298.15,0.10409145006443898,-22.803397506435562,-0.7762174598206185,100000.0,0.001933083782291608,-23.379746436125806
248,C2H4,PBE,400,1,10,1.0,-32.08159263,1.34561464,298.15,0.10926576650103659,-30.626712223498966,0.5420512987574153,100000.0,0.0022749231610501033,-31.304980563966055
249,C2H6,PBE,400,1,10,1.0,-40.59313102,1.959163696,298.15,0.12218616080992195,-38.51178116319008,-0.8716184884019238,100000.0,0.002370442629098731,-39.21852863305587
250,CH2O,PBE,400,1,10,1.0,-22.38068445,0.7038411139999999,298.15,0.10391572462076526,-21.572927611379235,,100000.0,0.002269981579861059,-22.24972261941481
251,N2,PBE,400,1,10,1.0,-16.65196284,0.150912487,298.15,0.08992638343635598,-16.411123969563643,0.0,100000.0,0.001988359423467674,-17.00395333167053
252,NH3,PBE,400,1,10,1.0,-19.7553485,0.9009015994999999,298.15,0.10386404271399308,-18.750582857786007,-0.47700514290652546,100000.0,0.0019979200071612033,-19.34626270792112
253,H2O,PBE,400,1,11,0.0,-14.23462241,0.5657945125,298.15,0.10286435756530043,-13.5659635399347,-2.506445205454288,3166.74874006291,0.002256948398725534,-14.238872705014717
254,H2,PBE,400,1,11,0.0,-6.76071672,0.26678092049999996,298.15,0.0899239969120918,-6.404011802587908,0.0,100000.0,0.001352968757709282,-6.80739943769893
255,O2,PBE,400,1,11,0.0,-9.88371299,0.0970719895,298.15,0.09002553645013818,-9.696615464049861,0.0,100000.0,0.0021293751652039987,-10.331488669555434
256,H2O2,PBE,400,1,11,0.0,-18.19198028,0.6938153455,298.15,0.11597472941162135,-17.382190205088378,-1.4093333767692797,100000.0,0.002376446391408033,-18.090727696686685
257,CO2,PBE,400,1,11,0.0,-23.00671901,0.306385004,298.15,0.0980472952918765,-22.602286710708125,-4.080562177045822,100000.0,0.002222566676457811,-23.26494496529402
258,CO,PBE,400,1,11,0.0,-14.81371123,0.131691519,298.15,0.08993329691102078,-14.592086414088978,-1.144812342975661,100000.0,0.002050432664299521,-15.20342291294988
259,HCOOH,PBE,400,1,11,0.0,-29.94079188,0.8869937835,298.15,0.11281379413691128,-28.940984302363088,-3.9244514030036863,5714.155064883787,0.002827369345367079,-29.783964472684282
260,CH3OH,PBE,400,1,11,0.0,-30.24763764,1.3556582115,298.15,0.11733816740960612,-28.774641261090395,-2.0814769872284744,16938.450392599163,0.0026287676053921875,-29.558408322638076
261,CH4,PBE,400,1,11,0.0,-24.03461499,1.1844563590000001,298.15,0.10399103327474735,-22.746167597725254,-0.7762174598206185,100000.0,0.0019321955354302247,-23.322251696613776
262,C2H4,PBE,400,1,11,0.0,-31.98965948,1.351112785,298.15,0.10922477513406448,-30.529321919865936,0.5420512987574153,100000.0,0.0022742414016377523,-31.20738699376423
263,C2H6,PBE,400,1,11,0.0,-40.52298179,1.9786957495000002,298.15,0.12151531231918766,-38.422770728180815,-0.8716184884019238,100000.0,0.002366451687170479,-39.12832829871069
264,CH2O,PBE,400,1,11,0.0,-22.16409389,0.700151522,298.15,0.1039350792444248,-21.360007288755575,,100000.0,0.00226944751008406,-22.036643063887137
265,N2,PBE,400,1,11,0.0,-16.62561471,0.1506280795,298.15,0.08992643227408215,-16.38506019822592,0.0,100000.0,0.0019884511139544566,-16.97791689785144
266,NH3,PBE,400,1,11,0.0,-19.52833913,0.908705004,298.15,0.10388401986496176,-18.515750106135037,-0.47700514290652546,100000.0,0.0019977172464727046,-19.111369503170874
267,H2O,PBE,400,1,11,0.1,-14.58107113,0.5575772250000001,298.15,0.10289373939538315,-13.920600165604617,-2.506445205454288,3166.74874006291,0.002257585860431272,-14.593699389892201
268,H2,PBE,400,1,11,0.1,-6.77751898,0.265493907,298.15,0.0899239969631791,-6.422101076036821,0.0,100000.0,0.0013532558740883224,-6.825574314896254
269,O2,PBE,400,1,11,0.1,-9.89437922,0.09700220749999999,298.15,0.09002601642332586,-9.707350996076674,0.0,100000.0,0.002129270208526922,-10.342192908748975
270,H2O2,PBE,400,1,11,0.1,-18.61174632,0.6889011195,298.15,0.1164459448888403,-17.80639925561116,-1.4093333767692797,100000.0,0.002379875365367684,-18.515959095795537
271,CO2,PBE,400,1,11,0.1,-23.15934973,0.303028422,298.15,0.09829250194056682,-22.758028806059432,-4.080562177045822,100000.0,0.002223617002538276,-23.42100021536622
272,CO,PBE,400,1,11,0.1,-14.85706568,0.1313328105,298.15,0.08993353422911277,-14.635799335270887,-1.144812342975661,100000.0,0.002050390724471682,-15.24712332977212
273,HCOOH,PBE,400,1,11,0.1,-30.33318789,0.882384853,298.15,0.11302646216329526,-29.337776574836706,-3.9244514030036863,5714.155064883787,0.0028284107138075846,-30.181067229158437
274,CH3OH,PBE,400,1,11,0.1,-30.4941523,1.348768276,298.15,0.11844200240564495,-29.026942021594355,-2.0814769872284744,16938.450392599163,0.002636989823772662,-29.813160537552175
275,CH4,PBE,400,1,11,0.1,-24.05939883,1.1783560585000001,298.15,0.10406499930597612,-22.776977772194023,-0.7762174598206185,100000.0,0.0019326429947696504,-23.353195281084595
276,C2H4,PBE,400,1,11,0.1,-32.06111921,1.349630015,298.15,0.1091525357815104,-30.60233665921849,0.5420512987574153,100000.0,0.0022742761442780014,-31.280412091634975
277,C2H6,PBE,400,1,11,0.1,-40.55032399,1.970837929,298.15,0.12172736471064205,-38.45775869628936,-0.8716184884019238,100000.0,0.002367767662675729,-39.163708624916126
278,CH2O,PBE,400,1,11,0.1,-22.37469126,0.704792061,298.15,0.10391529250117681,-21.565983906498822,,100000.0,0.002269859970623574,-22.24274265674024
279,N2,PBE,400,1,11,0.1,-16.65191799,0.1509121295,298.15,0.08992638349713289,-16.41107947700287,0.0,100000.0,0.0019883595353775334,-17.00390887247568
280,NH3,PBE,400,1,11,0.1,-19.75109009,0.902566793,298.15,0.10385144820898351,-18.744671848791018,-0.47700514290652546,100000.0,0.0019978067972050485,-19.340317945377702
281,H2O,PBE,400,1,11,1.0,-14.58164301,0.5575556195,298.15,0.10289376888563284,-13.921193621614368,-2.506445205454288,3166.74874006291,0.002257589614972062,-14.594293965318288
282,H2,PBE,400,1,11,1.0,-6.77753,0.265492851,298.15,0.08992399696322317,-6.4221131520367765,0.0,100000.0,0.0013532561258345474,-6.825586465954347
283,O2,PBE,400,1,11,1.0,-9.89438511,0.09700204600000001,298.15,0.09002601753672052,-9.70735704646328,0.0,100000.0,0.0021292701293777025,-10.342198935537242
284,H2O2,PBE,400,1,11,1.0,-18.61247727,0.6888892205,298.15,0.11644377381030158,-17.807144275689698,-1.4093333767692797,100000.0,0.0023798592795587666,-18.516699319890144
285,CO2,PBE,400,1,11,1.0,-23.1595351,0.3029889335,298.15,0.0982986204641847,-22.758247546035815,-4.080562177045822,100000.0,0.0022236467283484876,-23.421227818092916
286,CO,PBE,400,1,11,1.0,-14.85711262,0.13133223949999998,298.15,0.0899335346116111,-14.63584684588839,-1.144812342975661,100000.0,0.0020503906176305353,-15.247170808534934
287,HCOOH,PBE,400,1,11,1.0,-30.33376202,0.882369405,298.15,0.11302430689491272,-29.33836830810509,-3.9244514030036863,5714.155064883787,0.0028283999786190097,-30.181655761730347
288,CH3OH,PBE,400,1,11,1.0,-30.49459598,1.348763107,298.15,0.11844230628072694,-29.027390566719273,-2.0814769872284744,16938.450392599163,0.002636993376422337,-29.81361014189959
289,CH4,PBE,400,1,11,1.0,-24.05941288,1.1783479360000002,298.15,0.10406509333171732,-22.776999850668282,-0.7762174598206185,100000.0,0.001932643568618471,-23.35321753065188
290,C2H4,PBE,400,1,11,1.0,-32.06120645,1.3496325665000002,298.15,0.10915212115598494,-30.602421762344015,0.5420512987574153,100000.0,0.0022742748195283035,-31.280496799786377
291,C2H6,PBE,400,1,11,1.0,-40.55033905,1.9708280950000001,298.15,0.12172770194514881,-38.45778325305485,-0.8716184884019238,100000.0,0.002367769730790009,-39.16373379828989
292,CH2O,PBE,400,1,11,1.0,-22.37512311,0.7048861435,298.15,0.10391458414982457,-21.566322382350176,,100000.0,0.0022698580473920855,-22.243080559180125
293,N2,PBE,400,1,11,1.0,-16.6519437,0.15091255,298.15,0.08992638342564621,-16.411104766574354,0.0,100000.0,0.0019883594074692093,-17.0039341239113
294,NH3,PBE,400,1,11,1.0,-19.75143771,0.9025602730000001,298.15,0.10385107757502843,-18.745026359424973,-0.47700514290652546,100000.0,0.001997806238293203,-19.34067228937209
295,H2O,PBE,400,1,12,0.0,-14.24429233,0.565815361,298.15,0.10286428746515808,-13.575612681534842,-2.506445205454288,3166.74874006291,0.002256948155090706,-14.248521773975137
296,H2,PBE,400,1,12,0.0,-6.76322212,0.26653311100000004,298.15,0.089923996921555,-6.406765012078445,0.0,100000.0,0.0013529783444345854,-6.8101555054716165
297,O2,PBE,400,1,12,0.0,-9.89096632,0.0970729625,298.15,0.09002552977329478,-9.703867827726706,0.0,100000.0,0.002129374870470982,-10.338740945357628
298,H2O2,PBE,400,1,12,0.0,-18.20965728,0.6940076275,298.15,0.11601648980397483,-17.399633162696023,-1.4093333767692797,100000.0,0.002376727893125205,-18.108254584031304
299,CO2,PBE,400,1,12,0.0,-23.02971923,0.30644433550000005,298.15,0.09805160837598603,-22.625223286124015,-4.080562177045822,100000.0,0.0022225762323791914,-23.28788438980787
300,CO,PBE,400,1,12,0.0,-14.82488192,0.13169241199999998,298.15,0.08993329632756503,-14.603256211672434,-1.144812342975661,100000.0,0.00205043249452215,-15.214592659914214
301,HCOOH,PBE,400,1,12,0.0,-29.97667528,0.8874254415,298.15,0.1128263652588326,-28.976423473241166,-3.9244514030036863,5714.155064883787,0.002827379096569054,-29.81940655088323
302,CH3OH,PBE,400,1,12,0.0,-30.28411073,1.3563942325,298.15,0.11743586702795161,-28.810280630472047,-2.0814769872284744,16938.450392599163,0.002629386414583531,-29.594232189980126
303,CH4,PBE,400,1,12,0.0,-24.06480343,1.1849685325000001,298.15,0.10398923451038744,-22.775845662989614,-0.7762174598206185,100000.0,0.0019321582556437113,-23.351918646909787
304,C2H4,PBE,400,1,12,0.0,-32.04108568,1.3513477245,298.15,0.1092491901057091,-30.580488765394293,0.5420512987574153,100000.0,0.0022743109867685318,-31.258574586099332
305,C2H6,PBE,400,1,12,0.0,-40.58640633,1.979092456,298.15,0.12160257997448909,-38.48571129402551,-0.8716184884019238,100000.0,0.002366917768037014,-39.191407826565744
306,CH2O,PBE,400,1,12,0.0,-22.18854582,0.700751741,298.15,0.10393375780358605,-21.383860321196416,,100000.0,0.0022694034866659867,-22.06048297074588
307,N2,PBE,400,1,12,0.0,-16.63739574,0.1506286965,298.15,0.08992643216706864,-16.39684061133293,0.0,100000.0,0.0019884510145128593,-16.98969728130994
308,NH3,PBE,400,1,12,0.0,-19.5485896,0.9088416029999999,298.15,0.10388292378589892,-18.5358650732141,-0.47700514290652546,100000.0,0.0019977061184404035,-19.131481152427106
309,H2O,PBE,400,1,12,0.1,-14.59073871,0.5575993125,298.15,0.10289364367490772,-13.930245753825092,-2.506445205454288,3166.74874006291,0.002257585355115007,-14.60334482745263
310,H2,PBE,400,1,12,0.1,-6.7800265,0.2652355905,298.15,0.08992399697403075,-6.424866912525969,0.0,100000.0,0.001353265481038004,-6.82834301569745
311,O2,PBE,400,1,12,0.1,-9.90163266,0.097003482,298.15,0.09002600763723642,-9.714603170362764,0.0,100000.0,0.0021292699058862163,-10.34944499280274
312,H2O2,PBE,400,1,12,0.1,-18.62971617,0.6895807350000001,298.15,0.11588073904975693,-17.82425469595024,-1.4093333767692797,100000.0,0.002375862276833852,-18.532618033788253
313,CO2,PBE,400,1,12,0.1,-23.18236953,0.30304975850000004,298.15,0.09830327232773528,-22.781016499172264,-4.080562177045822,100000.0,0.002223658716573946,-23.444000345518784
314,CO,PBE,400,1,12,0.1,-14.86823643,0.13133372199999999,298.15,0.08993353361855311,-14.646969174381447,-1.144812342975661,100000.0,0.0020503905601844197,-15.258293119900431
315,HCOOH,PBE,400,1,12,0.1,-30.36875281,0.88306223,298.15,0.11309808400343635,-29.372592495996564,-3.9244514030036863,5714.155064883787,0.0028286939339202143,-30.215967592394875
316,CH3OH,PBE,400,1,12,0.1,-30.53060036,1.3499152799999998,298.15,0.11850380843005359,-29.062181271569948,-2.0814769872284744,16938.450392599163,0.002637391061007461,-29.84851941640932
317,CH4,PBE,400,1,12,0.1,-24.08957676,1.1788660505,298.15,0.10406302416442692,-22.806647685335573,-0.7762174598206185,100000.0,0.0019326056565119889,-23.382854061824627
318,C2H4,PBE,400,1,12,0.1,-32.11249696,1.3498801515,298.15,0.10917696806693544,-30.653439840433066,0.5420512987574153,100000.0,0.002274345062717877,-31.3315358208824
319,C2H6,PBE,400,1,12,0.1,-40.61372975,1.9712362245,298.15,0.12181735371340019,-38.5206761717866,-0.8716184884019238,100000.0,0.0023682532278989266,-39.226770871684664
320,CH2O,PBE,400,1,12,0.1,-22.39921188,0.7053640194999999,298.15,0.10391354973386346,-21.589934310766136,,100000.0,0.0022698197230836027,-22.266681061203514
321,N2,PBE,400,1,12,0.1,-16.66369908,0.1509127235,298.15,0.08992638339614994,-16.42285997310385,0.0,100000.0,0.0019883594417147944,-17.015689340651118
322,NH3,PBE,400,1,12,0.1,-19.77134477,0.9027056360000001,298.15,0.1038503641013444,-18.764788769898654,-0.47700514290652546,100000.0,0.0019977954717883555,-19.360431489812353
323,H2O,PBE,400,1,12,1.0,-14.59131061,0.5575777000000001,298.15,0.10289367312209785,-13.930839236877903,-2.506445205454288,3166.74874006291,0.0022575891069634597,-14.603939429119059
324,H2,PBE,400,1,12,1.0,-6.78003753,0.26523452550000004,298.15,0.08992399697407671,-6.424879007525924,0.0,100000.0,0.0013532657325876355,-6.828355185696927
325,O2,PBE,400,1,12,1.0,-9.90163855,0.097003107,298.15,0.09002601022231974,-9.71460943277768,0.0,100000.0,0.002129269832916415,-10.349451233461709
326,H2O2,PBE,400,1,12,1.0,-18.62935961,0.6884162165000001,298.15,0.11660228810127493,-17.824341105398727,-1.4093333767692797,100000.0,0.0023811169860703534,-18.534271134795603
327,CO2,PBE,400,1,12,1.0,-23.18255492,0.3030406785,298.15,0.0983042838587917,-22.78120995764121,-4.080562177045822,100000.0,0.002223663510768075,-23.44419523337671
328,CO,PBE,400,1,12,1.0,-14.86828337,0.13133311649999999,298.15,0.08993353402413765,-14.647016719475863,-1.144812342975661,100000.0,0.0020503904528427893,-15.25834063299094
329,HCOOH,PBE,400,1,12,1.0,-30.36932704,0.883037318,298.15,0.1130969275943019,-29.3731927944057,-3.9244514030036863,5714.155064883787,0.002828688687402701,-30.216566326554815
330,CH3OH,PBE,400,1,12,1.0,-30.53104412,1.3499084115,298.15,0.11850520495714845,-29.062630503542852,-2.0814769872284744,16938.450392599163,0.0026374029348057225,-29.848972188555177
331,CH4,PBE,400,1,12,1.0,-24.08959081,1.1788578915,298.15,0.10406311825737702,-22.806669800242624,-0.7762174598206185,100000.0,0.0019326062330316876,-23.38287634862102
332,C2H4,PBE,400,1,12,1.0,-32.11258413,1.3498790505,298.15,0.10917670581720551,-30.653528373682796,0.5420512987574153,100000.0,0.0022743444161277587,-31.331624161351286
333,C2H6,PBE,400,1,12,1.0,-40.61374482,1.9712263749999999,298.15,0.12181769684527732,-38.520700748154724,-0.8716184884019238,100000.0,0.002368255339092588,-39.22679607750518
334,CH2O,PBE,400,1,12,1.0,-22.39964369,0.7053688764999999,298.15,0.10391358535058592,-21.590361228149415,,100000.0,0.002269820703346485,-22.26710827085217
335,N2,PBE,400,1,12,1.0,-16.66372478,0.150913137,298.15,0.08992638332585998,-16.42288525967414,0.0,100000.0,0.001988359315631174,-17.015714589629575
336,NH3,PBE,400,1,12,1.0,-19.77169247,0.9026991249999999,298.15,0.10384999395839667,-18.765143351041605,-0.47700514290652546,100000.0,0.0019977949130227913,-19.36078590435935
337,H2O,PBE,400,2,0,0.0,-14.23450259,0.5653996375,298.15,0.1028648542138525,-13.566238098286147,-2.506445205454288,3166.74874006291,0.0022569538097477527,-14.23914887666244
338,H2,PBE,400,2,0,0.0,-6.7607136,0.266781464,298.15,0.08992399691207187,-6.404008139087928,0.0,100000.0,0.00135296872275586,-6.8073957637775875
339,O2,PBE,400,2,0,0.0,-9.88368662,0.09707283300000001,298.15,0.09002553066191545,-9.696588256338085,0.0,100000.0,0.002129374955052841,-10.33146139918709
340,H2O2,PBE,400,2,0,0.0,-18.18718796,0.6935892545000001,298.15,0.11599533669288753,-17.37760336880711,-1.4093333767692797,100000.0,0.0023765595496025296,-18.086174598521104
341,CO2,PBE,400,2,0,0.0,-23.0042246,0.30634969749999996,298.15,0.09805236381524551,-22.599822538684755,-4.080562177045822,100000.0,0.0022225801277764327,-23.262484803781298
342,CO,PBE,400,2,0,0.0,-14.81367717,0.13168705349999998,298.15,0.08993329982917186,-14.592056816670828,-1.144812342975661,100000.0,0.002050433563916733,-15.203393583752602
343,HCOOH,PBE,400,2,0,0.0,-29.92698602,0.88724466,298.15,0.11283627796233764,-28.926905082037663,-3.9244514030036863,5714.155064883787,0.0028274214187736933,-29.76990077804504
344,CH3OH,PBE,400,2,0,0.0,-30.23249944,1.355939767,298.15,0.11760807963136943,-28.758951593368632,-2.0814769872284744,16938.450392599163,0.002630616129102765,-29.54326979226062
345,CH4,PBE,400,2,0,0.0,-24.03254815,1.1855802765,298.15,0.10398528629502612,-22.742982587204974,-0.7762174598206185,100000.0,0.0019321550057173362,-23.319054602159596
346,C2H4,PBE,400,2,0,0.0,-31.97710637,1.3514647625,298.15,0.10923391357556955,-30.51640769392443,0.5420512987574153,100000.0,0.0022742787702289594,-31.194483909268197
347,C2H6,PBE,400,2,0,0.0,-40.49653737,1.9790706359999999,298.15,0.12162766499988065,-38.39583906900012,-0.8716184884019238,100000.0,0.0023670865638754516,-39.10158592801958
348,CH2O,PBE,400,2,0,0.0,-22.1587878,0.700878508,298.15,0.10393427061837701,-21.353975021381622,,100000.0,0.002269407874785548,-22.030598979248932
349,N2,PBE,400,2,0,0.0,-16.62558909,0.1505264975,298.15,0.08992644995649315,-16.385136142543505,0.0,100000.0,0.0019884523064574566,-16.977993197713797
350,NH3,PBE,400,2,0,0.0,-19.5278139,0.908816674,298.15,0.10387226336381217,-18.51512496263619,-0.47700514290652546,100000.0,0.001997682120381587,-19.11073388682796
351,H2O,PBE,400,2,0,0.1,-14.58094728,0.5573869355,298.15,0.10289470417442492,-13.920665640325575,-2.506445205454288,3166.74874006291,0.002257595938303111,-14.593767869330648
352,H2,PBE,400,2,0,0.1,-6.77751585,0.265494468,298.15,0.08992399696315534,-6.422097385036845,0.0,100000.0,0.001353255838875159,-6.825570613397474
353,O2,PBE,400,2,0,0.1,-9.89435293,0.09700334,298.15,0.09002600861611454,-9.707323581383886,0.0,100000.0,0.002129269990869118,-10.342165429161513
354,H2O2,PBE,400,2,0,0.1,-18.60588704,0.6884743555,298.15,0.1166076480072803,-17.80080503649272,-1.4093333767692797,100000.0,0.002381099768552933,-18.510729932486775
355,CO2,PBE,400,2,0,0.1,-23.15686658,0.303139021,298.15,0.09828153852956567,-22.755446020470433,-4.080562177045822,100000.0,0.002223554643148764,-23.41839883732524
356,CO,PBE,400,2,0,0.1,-14.85703304,0.1312896785,298.15,0.08993356316487672,-14.635809798335123,-1.144812342975661,100000.0,0.0020503918118849685,-15.247134117048626
357,HCOOH,PBE,400,2,0,0.1,-30.31914058,0.8827826915000001,298.15,0.11312567691937847,-29.32323221158062,-3.9244514030036863,5714.155064883787,0.002828842171509589,-30.166651505016205
358,CH3OH,PBE,400,2,0,0.1,-30.47898659,1.3496498965000001,298.15,0.1185233356188824,-29.01081335788112,-2.0814769872284744,16938.450392599163,0.00263755945025719,-29.7972017079753