,formula,xc,encut,ispin,ivdw,concentration,potential_energy,ZPE_correction,temperature,Cp,enthalpy_calculated,enthalpy_experimental,pressure,entropy,free_energy
597,CH4,PBE,520,1,11,0.0,-24.04141517,1.1846987494999999,298.15,0.1039967334253733,-22.752719687074627,-0.7762174598206185,100000.0,0.0019320597870649174,-23.328763312588034
598,C2H4,PBE,520,1,11,0.0,-31.98528987,1.3495008139999998,298.15,0.1092676772199459,-30.526521378780053,0.5420512987574153,100000.0,0.0022744976350387892,-31.204662848666867
599,C2H6,PBE,520,1,11,0.0,-40.53101266,1.9785501355000001,298.15,0.12155732166070332,-38.4309052028393,-0.8716184884019238,100000.0,0.0023664759642763643,-39.136470011588294
600,CH2O,PBE,520,1,11,0.0,-22.13497492,0.6970067895000001,298.15,0.10395539243902041,-21.33401273806098,,100000.0,0.002269522188274573,-22.010670778495044
601,N2,PBE,520,1,11,0.0,-16.63518877,0.150342131,298.15,0.0899264823748766,-16.394920156625123,0.0,100000.0,0.001987869253334557,-16.987603374506822
602,NH3,PBE,520,1,11,0.0,-19.53973874,0.9121516775,298.15,0.10387045988415866,-18.523716602615842,-0.47700514290652546,100000.0,0.0019969781300499573,-19.119115632090235
603,H2O,PBE,520,1,11,0.1,-14.56668586,0.5607345285,298.15,0.10289157757364298,-13.903059753926357,-2.506445205454288,3166.74874006291,0.0022573682804710236,-14.576094106748792
604,H2,PBE,520,1,11,0.1,-6.78760279,0.2674576655,298.15,0.08992399688711689,-6.430221127612883,0.0,100000.0,0.0013531978565349836,-6.833677068538789
605,O2,PBE,520,1,11,0.1,-9.87074906,0.09728133250000001,298.15,0.09002410975631894,-9.68344361774368,0.0,100000.0,0.0021289938860053156,-10.318203144856165
606,H2O2,PBE,520,1,11,0.1,-18.56340952,0.6912173095,298.15,0.1162093409508358,-17.755982869549165,-1.4093333767692797,100000.0,0.002378100573106229,-18.465013555420786
607,CO2,PBE,520,1,11,0.1,-23.10943208,0.30301007950000003,298.15,0.09830811477646317,-22.708113885723538,-4.080562177045822,100000.0,0.002223646175763926,-23.371093993027554
608,CO,PBE,520,1,11,0.1,-14.81914885,0.1315501935,298.15,0.08993338970572115,-14.597665266794278,-1.144812342975661,100000.0,0.0020503452864414303,-15.20897571394679
609,HCOOH,PBE,520,1,11,0.1,-30.28157446,0.881639299,298.15,0.11317922453243023,-29.28675593646757,-3.9244514030036863,5714.155064883787,0.0028290545627412387,-30.13023855434887
610,CH3OH,PBE,520,1,11,0.1,-30.47194065,1.3468152245,298.15,0.11828935105040217,-29.0068360744496,-2.0814769872284744,16938.450392599163,0.002635510049926829,-29.792613395835282
611,CH4,PBE,520,1,11,0.1,-24.0657212,1.1757745955,298.15,0.10410608941271882,-22.78584051508728,-0.7762174598206185,100000.0,0.001932652168197249,-23.36206075903529
612,C2H4,PBE,520,1,11,0.1,-32.0555994,1.344990201,298.15,0.10925381447067806,-30.60135538452932,0.5420512987574153,100000.0,0.0022747776689127494,-31.279580346515658
613,C2H6,PBE,520,1,11,0.1,-40.55766507,1.9668967430000004,298.15,0.12161804810852228,-38.469150278891476,-0.8716184884019238,100000.0,0.002366494275364248,-39.174720547091326
614,CH2O,PBE,520,1,11,0.1,-22.34484021,0.7023689315000001,298.15,0.10394277196984847,-21.538528506530152,,100000.0,0.002269825382760698,-22.215276944400255
615,N2,PBE,520,1,11,0.1,-16.66218024,0.150495632,298.15,0.08992645535442118,-16.42175815264558,0.0,100000.0,0.0019877917102959597,-17.01441825107032
616,NH3,PBE,520,1,11,0.1,-19.76157785,0.904936811,298.15,0.10389895069820798,-18.75274208830179,-0.47700514290652546,100000.0,0.001997275954229764,-19.348229914055395
617,H2O,PBE,520,1,11,1.0,-14.56726343,0.5607193665,298.15,0.10289161729281993,-13.90365244620718,-2.506445205454288,3166.74874006291,0.0022573709456967807,-14.576687593666676
618,H2,PBE,520,1,11,1.0,-6.78761361,0.2674564645,298.15,0.08992399688715963,-6.430233148612841,0.0,100000.0,0.0013531981057175555,-6.8336891638325294
619,O2,PBE,520,1,11,1.0,-9.870755,0.0972812745,298.15,0.0900241101488677,-9.683449615351133,0.0,100000.0,0.002128993770482828,-10.318209108020588
620,H2O2,PBE,520,1,11,1.0,-18.56416121,0.6912158575,298.15,0.11621032913174778,-17.756735023368254,-1.4093333767692797,100000.0,0.00237810455480328,-18.465766896382853
621,CO2,PBE,520,1,11,1.0,-23.10961849,0.3029980395,298.15,0.09830967282657738,-22.70831077767342,-4.080562177045822,100000.0,0.0022236536418876666,-23.37129311100223
622,CO,PBE,520,1,11,1.0,-14.81919518,0.13154888450000002,298.15,0.08993339056947647,-14.597712904930523,-1.144812342975661,100000.0,0.0020503451453259855,-15.209023310009465
623,HCOOH,PBE,520,1,11,1.0,-30.28215799,0.8816096325,298.15,0.11318072371357069,-29.28736763378643,-3.9244514030036863,5714.155064883787,0.002829061016017414,-30.130852175712022
624,CH3OH,PBE,520,1,11,1.0,-30.47238819,1.3467937065000002,298.15,0.11829303122741441,-29.007301452272586,-2.0814769872284744,16938.450392599163,0.0026355373207530507,-29.79308690445511
625,CH4,PBE,520,1,11,1.0,-24.06573488,1.175761727,298.15,0.10410627142117446,-22.785866881578826,-0.7762174598206185,100000.0,0.0019326530261941654,-23.36208738133862
626,C2H4,PBE,520,1,11,1.0,-32.05568515,1.3449829855,298.15,0.10925370589884742,-30.601448458601155,0.5420512987574153,100000.0,0.002274777743734578,-31.279673442895618
627,C2H6,PBE,520,1,11,1.0,-40.55767991,1.9668791775,298.15,0.12161882351338438,-38.46918190898661,-0.8716184884019238,100000.0,0.0023664985557352875,-39.17475345337909
628,CH2O,PBE,520,1,11,1.0,-22.34527423,0.702213479,298.15,0.10394165494791097,-21.53911909605209,,100000.0,0.002269850966068723,-22.21587516158548
629,N2,PBE,520,1,11,1.0,-16.66220731,0.1504957285,298.15,0.0899264553375271,-16.421785126162472,0.0,100000.0,0.0019877916462487724,-17.014445205491544
630,NH3,PBE,520,1,11,1.0,-19.76192522,0.904922392,298.15,0.10389900481350223,-18.753103823186496,-0.47700514290652546,100000.0,0.0019972768813348823,-19.34859192535649
631,H2O,PBE,520,1,12,0.0,-14.22956476,0.5680393315,298.15,0.10286338157908193,-13.558662046920919,-2.506445205454288,3166.74874006291,0.0022568300316491196,-14.231535920857104
632,H2,PBE,520,1,12,0.0,-6.77362635,0.268459303,298.15,0.08992399685236951,-6.41524305014763,0.0,100000.0,0.001352926346171865,-6.818618040258772
633,O2,PBE,520,1,12,0.0,-9.86717676,0.0973200575,298.15,0.09002384799776059,-9.679832854502239,0.0,100000.0,0.0021291081640200413,-10.314626453604815
634,H2O2,PBE,520,1,12,0.0,-18.16056754,0.69545511,298.15,0.11542382434445486,-17.349688605655544,-1.4093333767692797,100000.0,0.0023725811088907553,-18.05707366327132
635,CO2,PBE,520,1,12,0.0,-22.97963193,0.30664884800000003,298.15,0.09799154308575986,-22.57499153891424,-4.080562177045822,100000.0,0.0022222636690355604,-23.237559451837193
636,CO,PBE,520,1,12,0.0,-14.78739876,0.1318479565,298.15,0.08993319525003654,-14.565617608249964,-1.144812342975661,100000.0,0.002050412221570454,-15.176948012111195
637,HCOOH,PBE,520,1,12,0.0,-29.92437544,0.886880559,298.15,0.11300234540574094,-28.924492535594258,-3.9244514030036863,5714.155064883787,0.0028281407433726076,-29.7677026982308
638,CH3OH,PBE,520,1,12,0.0,-30.26202549,1.3547980110000002,298.15,0.11775818357520462,-28.789469295424794,-2.0814769872284744,16938.450392599163,0.0026314413439162266,-29.57403353211342
639,CH4,PBE,520,1,12,0.0,-24.07161745,1.185221695,298.15,0.10399493906325485,-22.782400815936747,-0.7762174598206185,100000.0,0.0019320218375060644,-23.35843312678918
640,C2H4,PBE,520,1,12,0.0,-32.03672042,1.349764428,298.15,0.10929233415945583,-30.577663657840546,0.5420512987574153,100000.0,0.0022745671766992042,-31.255825861573413
641,C2H6,PBE,520,1,12,0.0,-40.59444567,1.978980785,298.15,0.12166554741348978,-38.49379933758651,-0.8716184884019238,100000.0,0.002367069441789189,-39.19954109165596
642,CH2O,PBE,520,1,12,0.0,-22.15944984,0.697709818,298.15,0.10395396904936749,-21.357786052950633,,100000.0,0.0022694652505517265,-22.03442711740263
643,N2,PBE,520,1,12,0.0,-16.64697014,0.15034274350000001,298.15,0.0899264822664789,-16.40670091423352,0.0,100000.0,0.001987869154196691,-16.999384102557265
644,NH3,PBE,520,1,12,0.0,-19.55999981,0.912332626,298.15,0.10387076719422472,-18.543796416805776,-0.47700514290652546,100000.0,0.0019969639222053304,-19.139191210211294
645,H2O,PBE,520,1,12,0.1,-14.57635408,0.5607604805,298.15,0.10289148518799685,-13.912702114312003,-2.506445205454288,3166.74874006291,0.002257367192547384,-14.585736142770006
646,H2,PBE,520,1,12,0.1,-6.79010948,0.267198859,298.15,0.08992399689652025,-6.43298662410348,0.0,100000.0,0.0013532084678365168,-6.836445728788937
647,O2,PBE,520,1,12,0.1,-9.87800267,0.0972822825,298.15,0.09002410332685089,-9.69069628417315,0.0,100000.0,0.002128993573539221,-10.325455718123868
648,H2O2,PBE,520,1,12,0.1,-18.58104192,0.6915085325,298.15,0.11584501201577024,-17.77368837548423,-1.4093333767692797,100000.0,0.0023755588009408152,-18.481961231984734
649,CO2,PBE,520,1,12,0.1,-23.13245212,0.30306258799999997,298.15,0.0983147419295487,-22.73107479007045,-4.080562177045822,100000.0,0.0022236668639151434,-23.39406106554675
650,CO,PBE,520,1,12,0.1,-14.83031942,0.131551106,298.15,0.08993338910364365,-14.608834924896357,-1.144812342975661,100000.0,0.002050345111538029,-15.22014531990142
651,HCOOH,PBE,520,1,12,0.1,-30.31716899,0.8819854445,298.15,0.11318377583993533,-29.321999769660064,-3.9244514030036863,5714.155064883787,0.0028290357466963134,-30.16547677753757
652,CH3OH,PBE,520,1,12,0.1,-30.50840994,1.3474994725,298.15,0.118570608263874,-29.042339859236126,-2.0814769872284744,16938.450392599163,0.002637539652011743,-29.828722306483428
653,CH4,PBE,520,1,12,0.1,-24.09591304,1.176303616,298.15,0.10410408484134792,-22.81550533915865,-0.7762174598206185,100000.0,0.0019326131071350945,-23.39171393705098
654,C2H4,PBE,520,1,12,0.1,-32.10698262,1.3452934595,298.15,0.1092821393317489,-30.652407021168248,0.5420512987574153,100000.0,0.0022748595039635234,-31.330656382274974
655,C2H6,PBE,520,1,12,0.1,-40.62112069,1.967136405,298.15,0.12172170717568576,-38.53226257782431,-0.8716184884019238,100000.0,0.002367078998862168,-39.23800718133507
656,CH2O,PBE,520,1,12,0.1,-22.36933252,0.7028190855,298.15,0.1039404506916417,-21.56257298380836,,100000.0,0.0022697879663998648,-22.23931026599048
657,N2,PBE,520,1,12,0.1,-16.67396169,0.15049622199999999,298.15,0.08992645525113221,-16.433539012748867,0.0,100000.0,0.0019877916165072116,-17.026199083210493
658,NH3,PBE,520,1,12,0.1,-19.78184095,0.905064192,298.15,0.10389842931690052,-18.7728783286831,-0.47700514290652546,100000.0,0.001997267095649971,-19.368363513251136
659,H2O,PBE,520,1,12,1.0,-14.57693168,0.5607455835,298.15,0.10289152425336845,-13.913294572246631,-2.506445205454288,3166.74874006291,0.0022573698548236723,-14.58632939446231
660,H2,PBE,520,1,12,1.0,-6.79012029,0.26719764500000004,298.15,0.08992399689656544,-6.4329986481034345,0.0,100000.0,0.001353208717409794,-6.8364578271991645
661,O2,PBE,520,1,12,1.0,-9.87800862,0.0972823255,298.15,0.09002410303584278,-9.690702191464156,0.0,100000.0,0.0021289934553562723,-10.325461590178628
662,H2O2,PBE,520,1,12,1.0,-18.58179051,0.69149699,298.15,0.11582266650461392,-17.774470853495387,-1.4093333767692797,100000.0,0.002375412669888241,-18.482700141022566
663,CO2,PBE,520,1,12,1.0,-23.13263856,0.30305234400000003,298.15,0.09831586774852952,-22.73127034825147,-4.080562177045822,100000.0,0.0022236722038135185,-23.39425821581847
664,CO,PBE,520,1,12,1.0,-14.83036575,0.13154979800000002,298.15,0.08993338996668496,-14.608882562033315,-1.144812342975661,100000.0,0.0020503449704181802,-15.220192914963496
665,HCOOH,PBE,520,1,12,1.0,-30.31776309,0.8820072845000001,298.15,0.11318511169971945,-29.32257069380028,-3.9244514030036863,5714.155064883787,0.0028290325324407954,-30.166046743347504
666,CH3OH,PBE,520,1,12,1.0,-30.50885736,1.3474688075,298.15,0.11858721202332867,-29.04280134047667,-2.0814769872284744,16938.450392599163,0.0026376640365387916,-29.829220872970712
667,CH4,PBE,520,1,12,1.0,-24.09592672,1.176290405,298.15,0.10410426927019101,-22.81553204572981,-0.7762174598206185,100000.0,0.0019326139744429251,-23.391740902209968
668,C2H4,PBE,520,1,12,1.0,-32.1070683,1.345286442,298.15,0.10928202622108696,-30.652499831778915,0.5420512987574153,100000.0,0.0022748595485428363,-31.33074920617696
669,C2H6,PBE,520,1,12,1.0,-40.62113553,1.9671086785000003,298.15,0.12172396201075175,-38.532302889489245,-0.8716184884019238,100000.0,0.0023670925427892223,-39.238051531121855
670,CH2O,PBE,520,1,12,1.0,-22.3697654,0.7029080514999999,298.15,0.10394080971050079,-21.562916538789498,,100000.0,0.0022697942094511404,-22.239655682337354
671,N2,PBE,520,1,12,1.0,-16.67398883,0.150496323,298.15,0.08992645523344805,-16.43356605176655,0.0,100000.0,0.001987791552319769,-17.02622610309069
672,NH3,PBE,520,1,12,1.0,-19.78218834,0.905049727,298.15,0.10389848301290683,-18.773240129987094,-0.47700514290652546,100000.0,0.0019972680275704997,-19.368725592407237
673,H2O,PBE,520,2,0,0.0,-14.21976757,0.568120396,298.15,0.10286330058023141,-13.548783873419769,-2.506445205454288,3166.74874006291,0.0022568235268721807,-14.22165580795671
674,H2,PBE,520,2,0,0.0,-6.77111859,0.26870721750000004,298.15,0.08992399684415919,-6.412487375655841,0.0,100000.0,0.0013529160899629388,-6.815859307878291
675,O2,PBE,520,2,0,0.0,-9.85989701,0.0973199785,298.15,0.09002384853107322,-9.672553182968926,0.0,100000.0,0.0021291082521703456,-10.307346808353515
676,H2O2,PBE,520,2,0,0.0,-18.13809211,0.6954174215,298.15,0.11540406848112306,-17.327270620018876,-1.4093333767692797,100000.0,0.0023724656534498704,-18.034621254594956
677,CO2,PBE,520,2,0,0.0,-22.95413941,0.30667635550000005,298.15,0.09799378168543038,-22.54946927281457,-4.080562177045822,100000.0,0.002222268743126923,-23.21203869857786
678,CO,PBE,520,2,0,0.0,-14.77608529,0.131819997,298.15,0.08993321333857288,-14.554332079661426,-1.144812342975661,100000.0,0.002050419249895234,-15.16566457901769
679,HCOOH,PBE,520,2,0,0.0,-29.87471344,0.8862983520000001,298.15,0.11297425992136634,-28.875440828078634,-3.9244514030036863,5714.155064883787,0.002828121784167583,-29.7186453380282
680,CH3OH,PBE,520,2,0,0.0,-30.21040949,1.3547332184999998,298.15,0.11776160028208871,-28.73791467121791,-2.0814769872284744,16938.450392599163,0.0026314730151790677,-29.522488350693553
681,CH4,PBE,520,2,0,0.0,-24.03931152,1.184809895,298.15,0.1039917053230619,-22.750509919676936,-0.7762174598206185,100000.0,0.0019320710682656328,-23.326556908680335
682,C2H4,PBE,520,2,0,0.0,-31.97272707,1.3497210055000002,298.15,0.10930906141726471,-30.513697003082736,0.5420512987574153,100000.0,0.0022746552896102967,-31.191885477680046
683,C2H6,PBE,520,2,0,0.0,-40.50456651,1.978257731,298.15,0.12175546010405403,-38.40455331889594,-0.8716184884019238,100000.0,0.002367646484604359,-39.11046711828073
684,CH2O,PBE,520,2,0,0.0,-22.12967596,0.6975492240000001,298.15,0.10395207290181863,-21.32817466309818,,100000.0,0.002269465427247035,-22.004815780231883
685,N2,PBE,520,2,0,0.0,-16.63516022,0.15036057700000002,298.15,0.08992647911237198,-16.394873163887627,0.0,100000.0,0.0019878642001188054,-16.987554875153048
686,NH3,PBE,520,2,0,0.0,-19.5393184,0.9115478615,298.15,0.10388291938905503,-18.523887619110944,-0.47700514290652546,100000.0,0.0019970855191545726,-19.11931866664688
687,H2O,PBE,520,2,0,0.1,-14.56655028,0.5606517685000001,298.15,0.10289145738650118,-13.903007054113498,-2.506445205454288,3166.74874006291,0.0022573913124569597,-14.576048273922542
688,H2,PBE,520,2,0,0.1,-6.78759967,0.26745822900000005,298.15,0.08992399688709596,-6.430217444112904,0.0,100000.0,0.0013531978193648446,-6.833673373956532
689,O2,PBE,520,2,0,0.1,-9.87072288,0.0972822355,298.15,0.09002410364493034,-9.68341654085507,0.0,100000.0,0.002128993661957706,-10.31817600116776
690,H2O2,PBE,520,2,0,0.1,-18.55856378,0.6913373985,298.15,0.11608883551244276,-17.751137545987557,-1.4093333767692797,100000.0,0.0023772114090639565,-18.459903127599976
691,CO2,PBE,520,2,0,0.1,-23.10699689,0.303081168,298.15,0.09830853973952919,-22.705607182260472,-4.080562177045822,100000.0,0.002223637687116895,-23.368584758674373
692,CO,PBE,520,2,0,0.1,-14.81988562,0.1315510575,298.15,0.08993338913564425,-14.598401173364357,-1.144812342975661,100000.0,0.002050343908375253,-15.209711209646438
693,HCOOH,PBE,520,2,0,0.1,-30.26754812,0.8820327124999999,298.15,0.11318870109603829,-29.272326706403963,-3.9244514030036863,5714.155064883787,0.002829019318633189,-30.115798816254447
694,CH3OH,PBE,520,2,0,0.1,-30.45679195,1.347878911,298.15,0.11836050352615723,-28.990552535473842,-2.0814769872284744,16938.450392599163,0.002635974280807025,-29.77646826729646
695,CH4,PBE,520,2,0,0.1,-24.06361058,1.1760552805,298.15,0.10409867538945328,-22.783456624110546,-0.7762174598206185,100000.0,0.0019326421240097175,-23.359673873384047
696,C2H4,PBE,520,2,0,0.1,-32.04300696,1.3451279434999999,298.15,0.10927729315137902,-30.58860172334862,0.5420512987574153,100000.0,0.0022748527204585383,-31.266849061953334
697,C2H6,PBE,520,2,0,0.1,-40.53121688,1.9671819490000002,298.15,0.12169822641165973,-38.44233670458834,-0.8716184884019238,100000.0,0.002366942635099906,-39.14804065124338
698,CH2O,PBE,520,2,0,0.1,-22.33957648,0.7030029830000001,298.15,0.10394084736034259,-21.53263264963966,,100000.0,0.0022697757055249,-22.20936627624191
699,N2,PBE,520,2,0,0.1,-16.662138,0.1505057635,298.15,0.08992645358127405,-16.421705782918725,0.0,100000.0,0.0019877889253609,-17.014365051015076
700,NH3,PBE,520,2,0,0.1,-19.76103649,0.904295758,298.15,0.10388654309469203,-18.752854188905307,-0.47700514290652546,100000.0,0.001997343083728248,-19.348362029318885
701,H2O,PBE,520,2,0,1.0,-14.56712779,0.5606343389999999,298.15,0.10289143890119234,-13.903602012098808,-2.506445205454288,3166.74874006291,0.0022573938845194233,-14.576643998768274
702,H2,PBE,520,2,0,1.0,-6.78761049,0.267457026,298.15,0.08992399688713948,-6.43022946711286,0.0,100000.0,0.001353198068529303,-6.833685471244872
703,O2,PBE,520,2,0,1.0,-9.87072883,0.09728217650000001,298.15,0.09002410404422381,-9.683422549455775,0.0,100000.0,0.00212899354644766,-10.318181975329145
704,H2O2,PBE,520,2,0,1.0,-18.5592831,0.6915769,298.15,0.11580474109932237,-17.751901458900676,-1.4093333767692797,100000.0,0.0023752174431462283,-18.460072539574725
705,CO2,PBE,520,2,0,1.0,-23.10718284,0.3030691785,298.15,0.09830957666034429,-22.705804084839656,-4.080562177045822,100000.0,0.0022236425193673886,-23.36878310198904
706,CO,PBE,520,2,0,1.0,-14.81992883,0.131551356,298.15,0.08993338893869762,-14.598444085061303,-1.144812342975661,100000.0,0.002050343752386166,-15.209754074835239
707,HCOOH,PBE,520,2,0,1.0,-30.26813127,0.8820239055,298.15,0.11318865239461451,-29.272918712105387,-3.9244514030036863,5714.155064883787,0.002829019184816669,-30.116390782058478
708,CH3OH,PBE,520,2,0,1.0,-30.45723954,1.347557162,298.15,0.11840376108262274,-28.991278616917377,-2.0814769872284744,16938.450392599163,0.0026362981353687436,-29.77729090597757
709,CH4,PBE,520,2,0,1.0,-24.06362426,1.176116331,298.15,0.10409827120058002,-22.78340965779942,-0.7762174598206185,100000.0,0.0019326406344332594,-23.359626462955696
710,C2H4,PBE,520,2,0,1.0,-32.04309265,1.345110833,298.15,0.10927740028071731,-30.58870441671928,0.5420512987574153,100000.0,0.0022748537067500707,-31.266952049386816
711,C2H6,PBE,520,2,0,1.0,-40.53123166,1.9675273855,298.15,0.12170175489210644,-38.4420025196079,-0.8716184884019238,100000.0,0.0023669466179360808,-39.14770765374554
712,CH2O,PBE,520,2,0,1.0,-22.3400053,0.703034613,298.15,0.10394018253245085,-21.53303050446755,,100000.0,0.0022697714571287666,-22.209762864410493
713,N2,PBE,520,2,0,1.0,-16.66216447,0.15050679500000003,298.15,0.08992645340081579,-16.421731221599185,0.0,100000.0,0.0019877888095192306,-17.014390455157343
714,NH3,PBE,520,2,0,1.0,-19.76138375,0.9042984030000001,298.15,0.10388595340918827,-18.753199393590812,-0.47700514290652546,100000.0,0.0019973413740959635,-19.348706724277523
715,H2O,PBE,520,2,10,0.0,-14.22060593,0.5678253209999999,298.15,0.1028639889061056,-13.549916620093894,-2.506445205454288,3166.74874006291,0.002256832781064834,-14.222791313768376