,formula,xc,encut,ispin,ivdw,concentration,potential_energy,ZPE_correction,temperature,Cp,enthalpy_calculated,enthalpy_experimental,pressure,entropy,free_energy
1307,CO2,RPBE,520,2,12,0.0,-22.42973413,0.3041214295,298.15,0.09815972893603264,-22.027452971563967,-4.080562177045822,100000.0,0.002223641612769394,-22.690431718411162
1308,CO,RPBE,520,2,12,0.0,-14.50353256,0.1305103035,298.15,0.08993410122133608,-14.283088155278664,-1.144812342975661,100000.0,0.0020511126005880427,-14.894627377143989
1309,HCOOH,RPBE,520,2,12,0.0,-29.49922889,0.8857219780000001,298.15,0.11297528141094948,-28.50053163058905,-3.9244514030036863,5714.155064883787,0.002828931560718223,-29.34397757541719
1310,CH3OH,RPBE,520,2,12,0.0,-30.19393065,1.35548104,298.15,0.11751327792575683,-28.720936332074242,-2.0814769872284744,16938.450392599163,0.0026304912515923186,-29.505217298736493
1311,CH4,RPBE,520,2,12,0.0,-24.21678947,1.1862071104999998,298.15,0.1039535108757228,-22.926628848624276,-0.7762174598206185,100000.0,0.0019321317136817664,-23.502693919058494
1312,C2H4,RPBE,520,2,12,0.0,-32.03086532,1.3497768405,298.15,0.10930789298264787,-30.57178058651735,0.5420512987574153,100000.0,0.002275135018472923,-31.25011209227505
1313,C2H6,RPBE,520,2,12,0.0,-40.72651349,1.9813330175,298.15,0.12139648198683428,-38.62378399051317,-0.8716184884019238,100000.0,0.0023658731205639418,-39.32916906140931
1314,CH2O,RPBE,520,2,12,0.0,-21.98735025,0.6973116285000001,298.15,0.1039586162862558,-21.186080005213743,,100000.0,0.0022699799213340903,-21.8628745187595
1315,N2,RPBE,520,2,12,0.0,-16.35295525,0.148717874,298.15,0.0899267869572026,-16.1143105890428,0.0,100000.0,0.0019885678330304533,-16.70720208846083
1316,NH3,RPBE,520,2,12,0.0,-19.60260977,0.9120343820000001,298.15,0.10381317351921182,-18.58676221448079,-0.47700514290652546,100000.0,0.0019971279722267423,-19.182205919400193
1317,H2O,RPBE,520,2,12,0.1,-14.54097086,0.5611215405000001,298.15,0.10288440661789822,-13.876964912882102,-2.506445205454288,3166.74874006291,0.002257516266271326,-14.550043387670897
1318,H2,RPBE,520,2,12,0.1,-7.01883541,0.268359496,298.15,0.08992399685571728,-6.660551917144283,0.0,100000.0,0.0013524620507835503,-7.063788477585399
1319,O2,RPBE,520,2,12,0.1,-9.63014173,0.09583541250000001,298.15,0.09003437817691977,-9.44427193932308,0.0,100000.0,0.002129813276850934,-10.079275767816187
1320,H2O2,RPBE,520,2,12,0.1,-18.35282018,0.689681268,298.15,0.11648034897244242,-17.546658563027556,-1.4093333767692797,100000.0,0.0023809395166875464,-18.256535679927946
1321,CO2,RPBE,520,2,12,0.1,-22.58277674,0.30059358950000004,298.15,0.09846295083290002,-22.1837201996671,-4.080562177045822,100000.0,0.0022249614016552283,-22.847092441570606
1322,CO,RPBE,520,2,12,0.1,-14.54812011,0.1300870445,298.15,0.0899344058448521,-14.328098659655147,-1.144812342975661,100000.0,0.002051083324186073,-14.939629152761224
1323,HCOOH,RPBE,520,2,12,0.1,-29.88375178,0.8818822775000001,298.15,0.11322451813601897,-28.88864498436398,-3.9244514030036863,5714.155064883787,0.002830030224855589,-29.732418495904675
1324,CH3OH,RPBE,520,2,12,0.1,-30.43524842,1.3488683934999999,298.15,0.11837337815193139,-28.96800664834807,-2.0814769872284744,16938.450392599163,0.0026368098674773586,-29.754171510336445
1325,CH4,RPBE,520,2,12,0.1,-24.23990406,1.1780525469999998,298.15,0.10405745968609303,-22.957794053313908,-0.7762174598206185,100000.0,0.0019326316540085777,-23.534008180956565
1326,C2H4,RPBE,520,2,12,0.1,-32.0991729,1.3457687205,298.15,0.10929403075028143,-30.644110148749718,0.5420512987574153,100000.0,0.0022754049368098606,-31.32252213065958
1327,C2H6,RPBE,520,2,12,0.1,-40.75243291,1.9706277835000003,298.15,0.12168656681628587,-38.66011855968372,-0.8716184884019238,100000.0,0.00236749351596198,-39.36598675146778
1328,CH2O,RPBE,520,2,12,0.1,-22.19635159,0.7015683255,298.15,0.10393539669578744,-21.39084786780421,,100000.0,0.00227040045732436,-22.06776776415547
1329,N2,RPBE,520,2,12,0.1,-16.38021925,0.1489204885,298.15,0.08992674703118547,-16.141372014468814,0.0,100000.0,0.001988474961887541,-16.734235824355583
1330,NH3,RPBE,520,2,12,0.1,-19.81970654,0.9052974415,298.15,0.10383990738143123,-18.810569191118567,-0.47700514290652546,100000.0,0.001997385845006984,-19.4060897808074
1331,H2O,RPBE,520,2,12,1.0,-14.54153568,0.5611101935,298.15,0.1028844463141152,-13.877541040185886,-2.506445205454288,3166.74874006291,0.002257518870121302,-14.550620291312551
1332,H2,RPBE,520,2,12,1.0,-7.01884618,0.2683582655,298.15,0.08992399685575841,-6.660563917644241,0.0,100000.0,0.001352462296521836,-7.063800551352227
1333,O2,RPBE,520,2,12,1.0,-9.63014771,0.09583528699999999,298.15,0.09003437911135659,-9.444278043888643,0.0,100000.0,0.0021298131688049266,-10.079281840167832
1334,H2O2,RPBE,520,2,12,1.0,-18.35355354,0.689617208,298.15,0.11647772159061764,-17.547458610409382,-1.4093333767692797,100000.0,0.0023809109240222216,-18.257327202406607
1335,CO2,RPBE,520,2,12,1.0,-22.58296428,0.300583196,298.15,0.09846431515586379,-22.183916768844135,-4.080562177045822,100000.0,0.0022249679153836903,-22.847290952815783
1336,CO,RPBE,520,2,12,1.0,-14.54816838,0.1300858215,298.15,0.08993440673807188,-14.328148151761928,-1.144812342975661,100000.0,0.0020510831978091983,-14.93967860718874
1337,HCOOH,RPBE,520,2,12,1.0,-29.88431776,0.8818418680000001,298.15,0.1132293054768908,-28.889246586523107,-3.9244514030036863,5714.155064883787,0.0028300523870319868,-29.733026705716693
1338,CH3OH,RPBE,520,2,12,1.0,-30.43568808,1.348539703,298.15,0.11852582653975596,-28.968622550460243,-2.0814769872284744,16938.450392599163,0.0026379469666421482,-29.7551264385646
1339,CH4,RPBE,520,2,12,1.0,-24.23991687,1.1780171095,298.15,0.10405680391448224,-22.957842956585516,-0.7762174598206185,100000.0,0.0019326291406600487,-23.53405633487331
1340,C2H4,RPBE,520,2,12,1.0,-32.09925627,1.3457876890000002,298.15,0.10929337579671516,-30.644175205203283,0.5420512987574153,100000.0,0.002275402500678878,-31.32258646078069
1341,C2H6,RPBE,520,2,12,1.0,-40.75244807,1.9708514469999998,298.15,0.12168063010997932,-38.65991599289002,-0.8716184884019238,100000.0,0.0023674984248281453,-39.36578564825253
1342,CH2O,RPBE,520,2,12,1.0,-22.19677722,0.7015927989999999,298.15,0.10393782677827468,-21.391246594221727,,100000.0,0.002270401739330715,-22.06816687280318
1343,N2,RPBE,520,2,12,1.0,-16.38024612,0.1489228105,298.15,0.08992674657692512,-16.141396562923074,0.0,100000.0,0.0019884748606396477,-16.734260342622786
1344,NH3,RPBE,520,2,12,1.0,-19.82004809,0.90527808,298.15,0.10384024810356118,-18.81092976189644,-0.47700514290652546,100000.0,0.001997388129191485,-19.406451032614882