,formula,xc,encut,ispin,ivdw,concentration,potential_energy,ZPE_correction,temperature,Cp,enthalpy_calculated,enthalpy_experimental,pressure,entropy,free_energy
121,CH4,PW91,520,1,0,1.0,-24.15245967,1.1799976275000001,298.15,0.10403197130024511,-22.868430071199754,-0.7762174598206185,100000.0,0.0019319117068240038,-23.44442954658933
122,C2H4,PW91,520,1,0,1.0,-32.15948977,1.3534264125,298.15,0.10896341917164354,-30.697099938328357,0.5420512987574153,100000.0,0.0022730849724418873,-31.374820222861906
123,C2H6,PW91,520,1,0,1.0,-40.67405169,1.9694100335000002,298.15,0.12151057126577736,-38.58313108523422,-0.8716184884019238,100000.0,0.0023657000473453747,-39.28846455435024
124,CH2O,PW91,520,1,0,1.0,-22.42761379,0.706320195,298.15,0.10388614536708118,-21.617407449632918,,100000.0,0.0022693952615936816,-22.294027646877073
125,N2,PW91,520,1,0,1.0,-16.7128945,0.1493310075,298.15,0.08992666786424658,-16.473636824635754,0.0,100000.0,0.0019871857506399025,-17.06611625618904
126,NH3,PW91,520,1,0,1.0,-19.83713556,0.9068767600000001,298.15,0.10383386880003376,-18.826424931199966,-0.47700514290652546,100000.0,0.001996870055093604,-19.421791738126124
127,H2O,PW91,520,2,0,0.0,-14.28310009,0.5686583835,298.15,0.1028632127738075,-13.611578493726192,-2.506445205454288,3166.74874006291,0.0022564891754400197,-14.284350741383633
128,H2,PW91,520,2,0,0.0,-6.80172909,0.26948900400000003,298.15,0.08992399681923263,-6.442316089180768,0.0,100000.0,0.0013525408959011282,-6.845576157293689
129,O2,PW91,520,2,0,0.0,-9.79576884,0.0966979005,298.15,0.09002813555024029,-9.609042803949759,0.0,100000.0,0.0021293543198356536,-10.24390979440876
130,H2O2,PW91,520,2,0,0.0,-18.24945318,0.6952796205,298.15,0.11612403927231352,-17.438049520227686,-1.4093333767692797,100000.0,0.002377518920749609,-18.146906786449183
131,CO2,PW91,520,2,0,0.0,-23.00515398,0.30636415149999996,298.15,0.0979855350579606,-22.60080429344204,-4.080562177045822,100000.0,0.002222104571879284,-23.263324771547847
132,CO,PW91,520,2,0,0.0,-14.81915931,0.132096135,298.15,0.0899330362200435,-14.597130138779956,-1.144812342975661,100000.0,0.002050206980172047,-15.208399349918253
133,HCOOH,PW91,520,2,0,0.0,-29.98004058,0.8878537895,298.15,0.11293809738718186,-28.97924869311282,-3.9244514030036863,5714.155064883787,0.002827771806143703,-29.822348857114562
134,CH3OH,PW91,520,2,0,0.0,-30.33715069,1.3564908605000001,298.15,0.11782146800697202,-28.86283836149303,-2.0814769872284744,16938.450392599163,0.00263198136489102,-29.647563605435288
135,CH4,PW91,520,2,0,0.0,-24.12797502,1.1865410065000002,298.15,0.10396511748117421,-22.837468896018827,-0.7762174598206185,100000.0,0.0019315275590103265,-23.413353837737755
136,C2H4,PW91,520,2,0,0.0,-32.08870787,1.3540096335,298.15,0.10912003500662104,-30.62557820149338,0.5420512987574153,100000.0,0.002273435076064675,-31.30340286942206
137,C2H6,PW91,520,2,0,0.0,-40.64694536,1.9780973194999998,298.15,0.12138760556575967,-38.54746043493424,-0.8716184884019238,100000.0,0.0023650372456324523,-39.252596289719556
138,CH2O,PW91,520,2,0,0.0,-22.21395222,0.7002733605,298.15,0.1039283126555961,-21.409750546844403,,100000.0,0.0022690173923648445,-22.08625808237798
139,N2,PW91,520,2,0,0.0,-16.68547572,0.14920453,298.15,0.08992669201113879,-16.44634449798886,0.0,100000.0,0.001987277273745102,-17.038851217155962
140,NH3,PW91,520,2,0,0.0,-19.61446277,0.9122506425000001,298.15,0.10390190477750672,-18.598310222722493,-0.47700514290652546,100000.0,0.001996885082195982,-19.19368150997922
141,H2O,PW91,520,2,0,0.1,-14.63154102,0.5609414765,298.15,0.10289191437605893,-13.967707629123941,-2.506445205454288,3166.74874006291,0.002257072583080801,-14.640653819769483
142,H2,PW91,520,2,0,0.1,-6.81839033,0.26830192399999997,298.15,0.0899239968576604,-6.460164409142339,0.0,100000.0,0.001352827002951075,-6.863509780072202
143,O2,PW91,520,2,0,0.1,-9.80701731,0.096647858,298.15,0.09002848812962658,-9.620340963870374,0.0,100000.0,0.002129244131164697,-10.255175101577128
144,H2O2,PW91,520,2,0,0.1,-18.67087768,0.6899759775000001,298.15,0.11740379557689229,-17.863497906923108,-1.4093333767692797,100000.0,0.0023870294773596645,-18.57519074559789
145,CO2,PW91,520,2,0,0.1,-23.16107237,0.3028723405,298.15,0.09825642972322379,-22.759943599776776,-4.080562177045822,100000.0,0.0022232825828093932,-23.422815301841396
146,CO,PW91,520,2,0,0.1,-14.8634242,0.13181015350000003,298.15,0.08993321971523827,-14.641680826784762,-1.144812342975661,100000.0,0.0020501506553588264,-15.252933244679996
147,HCOOH,PW91,520,2,0,0.1,-30.37624419,0.884399378,298.15,0.11310719703621552,-29.378737614963786,-3.9244514030036863,5714.155064883787,0.0028285304913888273,-30.222063980971363
148,CH3OH,PW91,520,2,0,0.1,-30.58549613,1.3500933720000001,298.15,0.11845162586594049,-29.11695113213406,-2.0814769872284744,16938.450392599163,0.0026367256148077285,-29.903090874188983
149,CH4,PW91,520,2,0,0.1,-24.15239481,1.1794309465000001,298.15,0.10404123749814254,-22.868922626001858,-0.7762174598206185,100000.0,0.001932017267115142,-23.444953574192233
150,C2H4,PW91,520,2,0,0.1,-32.15937444,1.3498299640000002,298.15,0.10910670727522498,-30.700437768724775,0.5420512987574153,100000.0,0.002273711451511175,-31.37834483799283
151,C2H6,PW91,520,2,0,0.1,-40.67400619,1.9708660634999997,298.15,0.12153073454404262,-38.58160939195596,-0.8716184884019238,100000.0,0.002365879310096599,-39.28699630826126
152,CH2O,PW91,520,2,0,0.1,-22.4271565,0.7058095934999999,298.15,0.10389645676070791,-21.61745044973929,,100000.0,0.002269418827048077,-22.294077673023676
153,N2,PW91,520,2,0,0.1,-16.71284018,0.14945921250000002,298.15,0.08992664360635597,-16.473454323893645,0.0,100000.0,0.0019871864188853667,-17.065933954684315
154,NH3,PW91,520,2,0,0.1,-19.83676416,0.9069508675,298.15,0.10383326907978674,-18.825980023420215,-0.47700514290652546,100000.0,0.0019968832436135136,-19.421350762503582
155,H2O,PW91,520,2,0,1.0,-14.63212057,0.5609200665,298.15,0.10289195475003288,-13.968308548749967,-2.506445205454288,3166.74874006291,0.002257076527656466,-14.641255915470742
156,H2,PW91,520,2,0,1.0,-6.81840121,0.2683008115,298.15,0.08992399685769709,-6.460176401642303,0.0,100000.0,0.0013528272472139312,-6.863521845399137
157,O2,PW91,520,2,0,1.0,-9.80702357,0.09664782200000001,298.15,0.09002848838368525,-9.620347259616315,0.0,100000.0,0.002129244012641319,-10.255181361985324
158,H2O2,PW91,520,2,0,1.0,-18.673413,0.6910782295,298.15,0.11637706120154379,-17.865957709298456,-1.4093333767692797,100000.0,0.002379367555006868,-18.575366145823754
159,CO2,PW91,520,2,0,1.0,-23.16126309,0.30285693999999996,298.15,0.09825770168763792,-22.76014844831236,-4.080562177045822,100000.0,0.0022232886591520722,-23.42302196203855
160,CO,PW91,520,2,0,1.0,-14.86347206,0.1318134565,298.15,0.0899332175750531,-14.641725385924946,-1.144812342975661,100000.0,0.0020501505179118854,-15.252977762840375
161,HCOOH,PW91,520,2,0,1.0,-30.37681623,0.885295901,298.15,0.11300811535626132,-29.378512213643738,-3.9244514030036863,5714.155064883787,0.0028280536216329488,-30.221696400933602
162,CH3OH,PW91,520,2,0,1.0,-30.5859464,1.3495116505,298.15,0.11839110048689094,-29.11804364901311,-2.0814769872284744,16938.450392599163,0.0026362790507997486,-29.904050248009057
163,CH4,PW91,520,2,0,1.0,-24.15240844,1.179483232,298.15,0.10404171404784801,-22.86888349395215,-0.7762174598206185,100000.0,0.001932019283433636,-23.44491504330789
164,C2H4,PW91,520,2,0,1.0,-32.15946042,1.350460995,298.15,0.1091066877468474,-30.699892737253155,0.5420512987574153,100000.0,0.002273711620351489,-31.37779985686095
165,C2H6,PW91,520,2,0,1.0,-40.67402093,1.9710868495,298.15,0.12154009253081877,-38.58139398796918,-0.8716184884019238,100000.0,0.002365981308319143,-39.28681131504453
166,CH2O,PW91,520,2,0,1.0,-22.42759338,0.7056198375,298.15,0.10389896565356915,-21.618074576846432,,100000.0,0.00226943006121092,-22.294705149596467
167,N2,PW91,520,2,0,1.0,-16.71286689,0.14945494299999998,298.15,0.0899266444106693,-16.47348530258933,0.0,100000.0,0.0019871863185640178,-17.065964903469194
168,NH3,PW91,520,2,0,1.0,-19.83711173,0.9075150845,298.15,0.10382155240897184,-18.82577509309103,-0.47700514290652546,100000.0,0.001996835921400137,-19.421131723056476
169,H2O,PBE,400,1,0,0.0,-14.23450084,0.5658235805,298.15,0.10286429646867745,-13.565812963031323,-2.506445205454288,3166.74874006291,0.002256947654239253,-14.238721906142757
170,H2,PBE,400,1,0,0.0,-6.7607136,0.266781464,298.15,0.08992399691207187,-6.404008139087928,0.0,100000.0,0.00135296872275586,-6.8073957637775875
171,O2,PBE,400,1,0,0.0,-9.88368662,0.09707283300000001,298.15,0.09002553066191545,-9.696588256338085,0.0,100000.0,0.002129374955052841,-10.33146139918709
172,H2O2,PBE,400,1,0,0.0,-18.18718979,0.6940066315,298.15,0.11601517185695331,-17.377167986643048,-1.4093333767692797,100000.0,0.002376720758258159,-18.085787280717717
173,CO2,PBE,400,1,0,0.0,-23.00422785,0.30643415949999997,298.15,0.09805067098506393,-22.599743019514936,-4.080562177045822,100000.0,0.002222573691788942,-23.26240336572181
174,CO,PBE,400,1,0,0.0,-14.81367899,0.1316920465,298.15,0.08993329656636595,-14.592053646933634,-1.144812342975661,100000.0,0.002050432570017429,-15.20339011768433
175,HCOOH,PBE,400,1,0,0.0,-29.92698366,0.8873347819999999,298.15,0.11283234804867348,-28.926816529951328,-3.9244514030036863,5714.155064883787,0.0028274157237480747,-29.769810527986817
176,CH3OH,PBE,400,1,0,0.0,-30.23249711,1.3562500335000003,298.15,0.11745572540042915,-28.75879135109957,-2.0814769872284744,16938.450392599163,0.0026295309755241187,-29.542786011452087
177,CH4,PBE,400,1,0,0.0,-24.0325481,1.18496673,298.15,0.10398934699697482,-22.743592023003025,-0.7762174598206185,100000.0,0.001932161397273392,-23.319665943600086
178,C2H4,PBE,400,1,0,0.0,-31.97709968,1.3512182679999998,298.15,0.10924970708582693,-30.51663170491417,0.5420512987574153,100000.0,0.002274326250596743,-31.19472207652959
179,C2H6,PBE,400,1,0,0.0,-40.49653479,1.978739203,298.15,0.12161919446646507,-38.39617639253353,-0.8716184884019238,100000.0,0.002367039748914028,-39.10190929367225
180,CH2O,PBE,400,1,0,0.0,-22.15878924,0.700750427,298.15,0.10393380076008452,-21.354105012239916,,100000.0,0.0022694060794526748,-22.03072843482873
181,N2,PBE,400,1,0,0.0,-16.62558964,0.1506283445,298.15,0.0899264322281213,-16.38503486327188,0.0,100000.0,0.0019884510742950215,-16.97789155107294
182,NH3,PBE,400,1,0,0.0,-19.52781275,0.908838048,298.15,0.10388306561867089,-18.515091636381328,-0.47700514290652546,100000.0,0.001997707280969299,-19.110708062202324
183,H2O,PBE,400,1,0,0.1,-14.58094733,0.55760798,298.15,0.1028936557572584,-13.920445694242742,-2.506445205454288,3166.74874006291,0.002257584855772124,-14.593544618991201
184,H2,PBE,400,1,0,0.1,-6.77751585,0.265494468,298.15,0.08992399696315534,-6.422097385036845,0.0,100000.0,0.001353255838875159,-6.825570613397474
185,O2,PBE,400,1,0,0.1,-9.89435293,0.09700334,298.15,0.09002600861611454,-9.707323581383886,0.0,100000.0,0.002129269990869118,-10.342165429161513
186,H2O2,PBE,400,1,0,0.1,-18.60686265,0.689001584,298.15,0.11653950098670729,-17.801321565013293,-1.4093333767692797,100000.0,0.002380546243308361,-18.511081427455682
187,CO2,PBE,400,1,0,0.1,-23.15687462,0.3030402985,298.15,0.09830223038902108,-22.75553209111098,-4.080562177045822,100000.0,0.002223655557945712,-23.418514995712492
188,CO,PBE,400,1,0,0.1,-14.85703348,0.131333331,298.15,0.08993353388045522,-14.635766615119545,-1.144812342975661,100000.0,0.002050390633238706,-15.247090582419665
189,HCOOH,PBE,400,1,0,0.1,-30.31914082,0.882953743,298.15,0.1130989244907229,-29.32308815250928,-3.9244514030036863,5714.155064883787,0.0028287098443510583,-30.166467992602545
190,CH3OH,PBE,400,1,0,0.1,-30.47898808,1.3497606480000002,298.15,0.1185267728609567,-29.010700659139044,-2.0814769872284744,16938.450392599163,0.0026375664082821017,-29.79709108376835
191,CH4,PBE,400,1,0,0.1,-24.05732237,1.178865322,298.15,0.10406314960126295,-22.77439389839874,-0.7762174598206185,100000.0,0.0019326087664441895,-23.350601202114074
192,C2H4,PBE,400,1,0,0.1,-32.0485264,1.3497456565000001,298.15,0.10917769743321193,-30.589603046066788,0.5420512987574153,100000.0,0.0022743615274691963,-31.26770393548173
193,C2H6,PBE,400,1,0,0.1,-40.52385671,1.9708824415,298.15,0.12183375334127322,-38.431140515158724,-0.8716184884019238,100000.0,0.0023683738882877524,-39.13727118995172
194,CH2O,PBE,400,1,0,0.1,-22.36945673,0.705359918,298.15,0.10391363375594331,-21.560183178244056,,100000.0,0.0022698222809236423,-22.23693069130144
195,N2,PBE,400,1,0,0.1,-16.65189295,0.15091238050000003,298.15,0.08992638345446066,-16.41105418604554,0.0,100000.0,0.0019883594991101515,-17.00388357070523
196,NH3,PBE,400,1,0,0.1,-19.75056712,0.9027020505000001,298.15,0.10385050209215785,-18.74401456740784,-0.47700514290652546,100000.0,0.0019977966520413584,-19.33965763921397
197,H2O,PBE,400,1,0,1.0,-14.58151922,0.557586382,298.15,0.1028936851491482,-13.921039152850852,-2.506445205454288,3166.74874006291,0.0022575886077455835,-14.594139196250199
198,H2,PBE,400,1,0,1.0,-6.77752688,0.265493412,298.15,0.08992399696319942,-6.4221094710368005,0.0,100000.0,0.0013532560906155224,-6.825582774453818
199,O2,PBE,400,1,0,1.0,-9.89435881,0.097003533,298.15,0.0900260072856712,-9.707329269714329,0.0,100000.0,0.0021292699030095842,-10.342171091296636
200,H2O2,PBE,400,1,0,1.0,-18.60790087,0.689536379,298.15,0.11591357071196362,-17.802450920288038,-1.4093333767692797,100000.0,0.002376093924113652,-18.510883323762524
201,CO2,PBE,400,1,0,1.0,-23.15706001,0.30302783200000005,298.15,0.09830402002831351,-22.755728157971685,-4.080562177045822,100000.0,0.002223664175637205,-23.41871363193792
202,CO,PBE,400,1,0,1.0,-14.85708041,0.1313327585,298.15,0.0899335342639446,-14.635814117236055,-1.144812342975661,100000.0,0.0020503905261392004,-15.247138052604457
203,HCOOH,PBE,400,1,0,1.0,-30.31971558,0.8829267075,298.15,0.11309955655721748,-29.323689315942783,-3.9244514030036863,5714.155064883787,0.0028287129441892244,-30.1670700802528
204,CH3OH,PBE,400,1,0,1.0,-30.47943179,1.349742844,298.15,0.11853348419989507,-29.011155461800104,-2.0814769872284744,16938.450392599163,0.002637618491242392,-29.797561414964022
205,CH4,PBE,400,1,0,1.0,-24.05733642,1.1788571855,298.15,0.1040632433762525,-22.774415991123746,-0.7762174598206185,100000.0,0.0019326093415344605,-23.350623466302245
206,C2H4,PBE,400,1,0,1.0,-32.04861359,1.349748124,298.15,0.10917727706595448,-30.589688188934048,0.5420512987574153,100000.0,0.0022743601728947597,-31.26778867448262
207,C2H6,PBE,400,1,0,1.0,-40.52387175,1.9708725969999998,298.15,0.12183409520219235,-38.431165057797806,-0.8716184884019238,100000.0,0.0023683759903137327,-39.13729635930984
208,CH2O,PBE,400,1,0,1.0,-22.36988855,0.7053754760000001,298.15,0.10391355422591564,-21.560599519774083,,100000.0,0.0022698228240299293,-22.237347194758605
209,N2,PBE,400,1,0,1.0,-16.65191865,0.1509127925,298.15,0.0899263833844246,-16.411079474115574,0.0,100000.0,0.0019883593737299527,-17.00390882139316
210,NH3,PBE,400,1,0,1.0,-19.75091481,0.902695539,298.15,0.10385013180537661,-18.744369139194625,-0.47700514290652546,100000.0,0.001997796092920489,-19.340012044298867
211,H2O,PBE,400,1,10,0.0,-14.23534374,0.5655384665000001,298.15,0.10286503255913493,-13.566940240940864,-2.506445205454288,3166.74874006291,0.002256952534061034,-14.239850638971161
212,H2,PBE,400,1,10,0.0,-6.76073784,0.266779053,298.15,0.08992399691216285,-6.404034790087837,0.0,100000.0,0.0013529690182912204,-6.807422502891365
213,O2,PBE,400,1,10,0.0,-9.88372599,0.097072217,298.15,0.09002553488896671,-9.696628238111034,0.0,100000.0,0.002129375129321182,-10.331501432918143
214,H2O2,PBE,400,1,10,0.0,-18.19481648,0.6933044220000001,298.15,0.11573801808867101,-17.38577403991133,-1.4093333767692797,100000.0,0.0023748220269014337,-18.09382722723199
215,CO2,PBE,400,1,10,0.0,-23.00682905,0.30635299550000006,298.15,0.09804410568927502,-22.602431948810725,-4.080562177045822,100000.0,0.0022225554351512572,-23.265086851801072
216,CO,PBE,400,1,10,0.0,-14.81372081,0.1316916765,298.15,0.08993329680811171,-14.592095836691888,-1.144812342975661,100000.0,0.00205043264610132,-15.203432330126997
217,HCOOH,PBE,400,1,10,0.0,-29.94408882,0.8866845720000001,298.15,0.11280935569214989,-28.94459489230785,-3.9244514030036863,5714.155064883787,0.00282739838081706,-29.787583719548458
218,CH3OH,PBE,400,1,10,0.0,-30.26774769,1.3508906524999997,298.15,0.11746686163952691,-28.799390175860474,-2.0814769872284744,16938.450392599163,0.0026296163047937553,-29.583410277134732
219,CH4,PBE,400,1,10,0.0,-24.0543097,1.177831947,298.15,0.1040152643165384,-22.772462488683463,-0.7762174598206185,100000.0,0.0019326323381182193,-23.34867682029341
220,C2H4,PBE,400,1,10,0.0,-32.00987887,1.3471336870000001,298.15,0.10933654624150724,-30.553408636758494,0.5420512987574153,100000.0,0.002274875675385895,-31.231662819374797
221,C2H6,PBE,400,1,10,0.0,-40.56554239,1.9668858615000002,298.15,0.12206103754797537,-38.47659549095202,-0.8716184884019238,100000.0,0.0023696596862300984,-39.18310952640152
222,CH2O,PBE,400,1,10,0.0,-22.16975891,0.6991512725,298.15,0.10393611773641709,-21.36667151976358,,100000.0,0.002269575333478726,-22.043345405440263
223,N2,PBE,400,1,10,0.0,-16.62563386,0.150628013,298.15,0.08992643228561764,-16.385079414714383,0.0,100000.0,0.0019884511308854193,-16.97793611938787
224,NH3,PBE,400,1,10,0.0,-19.53228453,0.9070730515000001,298.15,0.10389687870605546,-18.521314599793943,-0.47700514290652546,100000.0,0.0019978286158348615,-19.116967201605107
225,H2O,PBE,400,1,10,0.1,-14.58180921,0.557303514,298.15,0.1028946830941253,-13.921611012905874,-2.506445205454288,3166.74874006291,0.002257592393078328,-14.594712184902178
226,H2,PBE,400,1,10,0.1,-6.77754015,0.2654920345,298.15,0.08992399696325687,-6.422124118536743,0.0,100000.0,0.0013532561377208267,-6.8255974359982075
227,O2,PBE,400,1,10,0.1,-9.89439223,0.09700267100000001,298.15,0.09002601322798601,-9.707363545772013,0.0,100000.0,0.0021292701664606677,-10.34220544590226
228,H2O2,PBE,400,1,10,0.1,-18.61433418,0.6877490805,298.15,0.11675439245505148,-17.80983070704495,-1.4093333767692797,100000.0,0.002382194985786799,-18.520082142057284
229,CO2,PBE,400,1,10,0.1,-23.15945206,0.30299235850000006,298.15,0.09829050616379487,-22.758169195336205,-4.080562177045822,100000.0,0.002223611292768328,-23.421138902275082
230,CO,PBE,400,1,10,0.1,-14.85707528,0.1313329655,298.15,0.0899335341252851,-14.635808780374715,-1.144812342975661,100000.0,0.0020503907068071744,-15.247132769609275
231,HCOOH,PBE,400,1,10,0.1,-30.33658949,0.8826416265,298.15,0.11297968996212038,-29.34096817353788,-3.9244514030036863,5714.155064883787,0.002828196534680917,-30.184194970352998
232,CH3OH,PBE,400,1,10,0.1,-30.51455309,1.3442061105,298.15,0.11871768149657669,-29.051629298003423,-2.0814769872284744,16938.450392599163,0.002638986896553939,-29.838443241210978
233,CH4,PBE,400,1,10,0.1,-24.07921268,1.1717455490000002,298.15,0.10409135363359967,-22.8033757773664,-0.7762174598206185,100000.0,0.0019330832438040372,-23.379724546506576
234,C2H4,PBE,400,1,10,0.1,-32.08150514,1.3456156920000002,298.15,0.10926602937166652,-30.62662341862833,0.5420512987574153,100000.0,0.0022749238132794346,-31.304891953557593
235,C2H6,PBE,400,1,10,0.1,-40.5931156,1.9591735255,298.15,0.12218578304624006,-38.51175629145376,-0.8716184884019238,100000.0,0.0023704402566969976,-39.218503053987966
236,CH2O,PBE,400,1,10,0.1,-22.38025317,0.7038261495,298.15,0.10391579204164647,-21.572511228458353,,100000.0,0.0022699810073703143,-22.24930606580581
237,N2,PBE,400,1,10,0.1,-16.65193713,0.1509120685,298.15,0.08992638350750176,-16.4110986779925,0.0,100000.0,0.001988359550723363,-17.00392807804067
238,NH3,PBE,400,1,10,0.1,-19.75500145,0.9009081305,298.15,0.10386441858264162,-18.75022890091736,-0.47700514290652546,100000.0,0.0019979205740281152,-19.34590892006384
239,H2O,PBE,400,1,10,1.0,-14.58238095,0.557282002,298.15,0.10289471079175971,-13.92220423720824,-2.506445205454288,3166.74874006291,0.0022575961569358655,-14.59530653139867