,formula,xc,encut,ispin,ivdw,concentration,potential_energy,ZPE_correction,temperature,Cp,enthalpy_calculated,enthalpy_experimental,pressure,entropy,free_energy
121,CH4,PW91,520,1,0,1.0,-24.15169391,1.1772325174999998,298.15,0.10407636558704647,-22.870385026912952,-0.7762174598206185,100000.0,0.0019321990346887392,-23.4464701691054
122,C2H4,PW91,520,1,0,1.0,-32.15527386,1.347045342,298.15,0.10921018286147222,-30.69901833513853,0.5420512987574153,100000.0,0.00227425989812437,-31.37708892376431
123,C2H6,PW91,520,1,0,1.0,-40.67272747,1.9670052960000002,298.15,0.1215971201105821,-38.584125053889416,-0.8716184884019238,100000.0,0.002366112251656459,-39.28958142172079
124,CH2O,PW91,520,1,0,1.0,-22.41938044,0.7037065215,298.15,0.10392682696767164,-21.61174709153233,,100000.0,0.002269489250315517,-22.288395311513902
125,N2,PW91,520,1,0,1.0,-16.69918143,0.1494747895,298.15,0.08992664067392045,-16.45977999982608,0.0,100000.0,0.001987217739696728,-17.052268968916657
126,NH3,PW91,520,1,0,1.0,-19.83120794,0.9051245775000001,298.15,0.10388272960755929,-18.82220063289244,-0.47700514290652546,100000.0,0.0019971356056241313,-19.417646613709273
127,H2O,PW91,520,2,0,0.0,-14.27449884,0.5680529360000001,298.15,0.10286342078296229,-13.603582483217037,-2.506445205454288,3166.74874006291,0.002256636329833539,-14.276398604956906
128,H2,PW91,520,2,0,0.0,-6.80125016,0.269400444,298.15,0.08992399682198421,-6.441925719178016,0.0,100000.0,0.0013525993182286924,-6.845203205907901
129,O2,PW91,520,2,0,0.0,-9.77715147,0.0967761265,298.15,0.09002758672922084,-9.590347756770779,0.0,100000.0,0.0021292965051304324,-10.225197509775418
130,H2O2,PW91,520,2,0,0.0,-18.21846407,0.6949898745,298.15,0.1154326184654435,-17.408041577034556,-1.4093333767692797,100000.0,0.002372741431105859,-18.115474434718767
131,CO2,PW91,520,2,0,0.0,-22.99669408,0.3067879355,298.15,0.09798386664503861,-22.591922277854962,-4.080562177045822,100000.0,0.0022220570907140373,-23.25442859945135
132,CO,PW91,520,2,0,0.0,-14.81415219,0.13216930600000001,298.15,0.08993298985378193,-14.592049894146218,-1.144812342975661,100000.0,0.0020502129624126015,-15.203320888889534
133,HCOOH,PW91,520,2,0,0.0,-29.96822629,0.8875233280000001,298.15,0.11293528981665824,-28.967767672183342,-3.9244514030036863,5714.155064883787,0.0028277065974324275,-29.81084839420782
134,CH3OH,PW91,520,2,0,0.0,-30.3271302,1.3550073089999999,298.15,0.11774572791458615,-28.854377163085413,-2.0814769872284744,16938.450392599163,0.0026313024134950527,-29.638899977668963
135,CH4,PW91,520,2,0,0.0,-24.12722688,1.1871269345000002,298.15,0.10397344087830973,-22.83612650462169,-0.7762174598206185,100000.0,0.001931596239765225,-23.41203192350769
136,C2H4,PW91,520,2,0,0.0,-32.08456754,1.3511525225000003,298.15,0.1092174842412359,-30.624197533258766,0.5420512987574153,100000.0,0.002273941477785899,-31.30217318486063
137,C2H6,PW91,520,2,0,0.0,-40.64578764,1.9786975275,298.15,0.12156415347804339,-38.54552595902196,-0.8716184884019238,100000.0,0.0023662147782825987,-39.251012895166916
138,CH2O,PW91,520,2,0,0.0,-22.20493685,0.6991251465000001,298.15,0.10394147678247201,-21.401870226717527,,100000.0,0.0022690935808835884,-22.07840047785797
139,N2,PW91,520,2,0,0.0,-16.6716305,0.14925068300000002,298.15,0.08992668317471872,-16.43245313382528,0.0,100000.0,0.001987309656757913,-17.024969507987652
140,NH3,PW91,520,2,0,0.0,-19.60810837,0.9117985670000001,298.15,0.10392263406404989,-18.59238716893595,-0.47700514290652546,100000.0,0.0019970167052969496,-19.187797699620237
141,H2O,PW91,520,2,0,0.1,-14.62357173,0.5609981835,298.15,0.10289145760558216,-13.959682088894418,-2.506445205454288,3166.74874006291,0.0022571895720830577,-14.632663159810981
142,H2,PW91,520,2,0,0.1,-6.81789823,0.26823337950000004,298.15,0.08992399685998342,-6.4597408536400165,0.0,100000.0,0.0013528939226926612,-6.863106176690834
143,O2,PW91,520,2,0,0.1,-9.78860005,0.096738751,298.15,0.09002784859615627,-9.601833450403843,0.0,100000.0,0.0021291807064519916,-10.236648678032504
144,H2O2,PW91,520,2,0,0.1,-18.64265826,0.691899893,298.15,0.11606646028428225,-17.83469190671572,-1.4093333767692797,100000.0,0.002377100455959926,-18.543424407660172
145,CO2,PW91,520,2,0,0.1,-23.15279334,0.3030244675,298.15,0.09830542754699878,-22.751463444953,-4.080562177045822,100000.0,0.002223480061176329,-23.414394025192724
146,CO,PW91,520,2,0,0.1,-14.85846967,0.1319313415,298.15,0.08993314151179951,-14.6366051869882,-1.144812342975661,100000.0,0.002050126678285424,-15.247850456119
147,HCOOH,PW91,520,2,0,0.1,-30.36477992,0.8824750450000001,298.15,0.11317877695976675,-29.369126098040233,-3.9244514030036863,5714.155064883787,0.0028288392564820215,-30.212544522360346
148,CH3OH,PW91,520,2,0,0.1,-30.57575689,1.3484074995000002,298.15,0.11853329668717039,-29.10881609381283,-2.0814769872284744,16938.450392599163,0.00263722041165104,-29.89510335954659
149,CH4,PW91,520,2,0,0.1,-24.15162454,1.1775653555,298.15,0.10408027461227976,-22.86997890988772,-0.7762174598206185,100000.0,0.0019321757597456153,-23.446057112655875
150,C2H4,PW91,520,2,0,0.1,-32.1551966,1.3462515095,298.15,0.1092703292335706,-30.699674761266426,0.5420512987574153,100000.0,0.002274497824499535,-31.37781628764096
151,C2H6,PW91,520,2,0,0.1,-40.67267467,1.9680295065000002,298.15,0.1215027413680212,-38.58314242213198,-0.8716184884019238,100000.0,0.0023654849618667683,-39.288411763512556
152,CH2O,PW91,520,2,0,0.1,-22.41891408,0.7035950825,298.15,0.10392136378735517,-21.611397633712645,,100000.0,0.002269535863893651,-22.288059751532536
153,N2,PW91,520,2,0,0.1,-16.69915182,0.149466931,298.15,0.08992664215291332,-16.459758246847088,0.0,100000.0,0.001987218489436254,-17.052247439472506
154,NH3,PW91,520,2,0,0.1,-19.83081933,0.905066313,298.15,0.10388514551175632,-18.821867871488244,-0.47700514290652546,100000.0,0.001997129738004936,-19.417312102874416
155,H2O,PW91,520,2,0,1.0,-14.62415271,0.5610030655,298.15,0.10289149333224534,-13.960258151167755,-2.506445205454288,3166.74874006291,0.002257192622754232,-14.63324013164193
156,H2,PW91,520,2,0,1.0,-6.8179091,0.2682324425,298.15,0.08992399686001606,-6.4597526606399835,0.0,100000.0,0.0013528941723894442,-6.863118058137896
157,O2,PW91,520,2,0,1.0,-9.78860627,0.096738706,298.15,0.09002784891183248,-9.601839715088168,0.0,100000.0,0.0021291805907543665,-10.236654908221583
158,H2O2,PW91,520,2,0,1.0,-18.64336034,0.6918634755,298.15,0.11619206281233108,-17.83530480168767,-1.4093333767692797,100000.0,0.0023779368403371776,-18.5442866706342
159,CO2,PW91,520,2,0,1.0,-23.15298424,0.30301481350000004,298.15,0.09830656662732451,-22.751662859872674,-4.080562177045822,100000.0,0.002223485475114969,-23.4145950542782
160,CO,PW91,520,2,0,1.0,-14.85851512,0.1319295425,298.15,0.08993314266790087,-14.636652434832099,-1.144812342975661,100000.0,0.0020501265628232656,-15.247897669537856
161,HCOOH,PW91,520,2,0,1.0,-30.36536143,0.8825514034999999,298.15,0.11318329815063688,-29.369626728349363,-3.9244514030036863,5714.155064883787,0.002828863595826898,-30.213052409445154
162,CH3OH,PW91,520,2,0,1.0,-30.57620818,1.3483359305,298.15,0.11848466204775865,-29.10938758745224,-2.0814769872284744,16938.450392599163,0.002636851743703097,-29.895564934837317
163,CH4,PW91,520,2,0,1.0,-24.15163816,1.177548093,298.15,0.10408043017776558,-22.870009636822235,-0.7762174598206185,100000.0,0.0019321765146173488,-23.4460880646554
164,C2H4,PW91,520,2,0,1.0,-32.15528235,1.346352784,298.15,0.10926276244362088,-30.69966680355638,0.5420512987574153,100000.0,0.002274466094188992,-31.37779886953883
165,C2H6,PW91,520,2,0,1.0,-40.67268951,1.9678008914999998,298.15,0.12151917134008072,-38.58336944715992,-0.8716184884019238,100000.0,0.0023656154230849618,-39.2886776855527
166,CH2O,PW91,520,2,0,1.0,-22.4193522,0.7036175615,298.15,0.10392175233993917,-21.61181288616006,,100000.0,0.0022695343773272924,-22.288474560760193
167,N2,PW91,520,2,0,1.0,-16.69917892,0.14946874500000001,298.15,0.08992664181144155,-16.45978353318856,0.0,100000.0,0.001987218379585563,-17.052272693061994
168,NH3,PW91,520,2,0,1.0,-19.83116835,0.9050681335,298.15,0.10388545377449032,-18.82221476272551,-0.47700514290652546,100000.0,0.0019971315561750067,-19.417659536199086
169,H2O,PBE,400,1,0,0.0,-14.22242861,0.5655475670000001,298.15,0.10286508908063507,-13.554015953919365,-2.506445205454288,3166.74874006291,0.0022570514772175657,-14.226955851851782
170,H2,PBE,400,1,0,0.0,-6.75962723,0.266679709,298.15,0.08992399691593617,-6.403023524084064,0.0,100000.0,0.0013530836120444983,-6.806445403015132
171,O2,PBE,400,1,0,0.0,-9.85875797,0.097142651,298.15,0.09002505267691638,-9.671590266323083,0.0,100000.0,0.0021293045056387633,-10.30644240467928
172,H2O2,PBE,400,1,0,0.0,-18.14818685,0.693920601,298.15,0.1154969561932283,-17.33876929280677,-1.4093333767692797,100000.0,0.0023731872104184796,-18.04633505959304
173,CO2,PBE,400,1,0,0.0,-22.9908224,0.30686691099999996,298.15,0.09800651693279883,-22.5859489720672,-4.080562177045822,100000.0,0.002222346806841603,-23.248541672527026
174,CO,PBE,400,1,0,0.0,-14.79789858,0.1317164405,298.15,0.08993328064173053,-14.57624885885827,-1.144812342975661,100000.0,0.0020504558085325027,-15.187592258172234
175,HCOOH,PBE,400,1,0,0.0,-29.90979102,0.8866398825,298.15,0.1128458590553113,-28.91030527844469,-3.9244514030036863,5714.155064883787,0.002827518057387776,-29.753329787254856
176,CH3OH,PBE,400,1,0,0.0,-30.21792611,1.3553976455,298.15,0.11760240281184586,-28.744926061688155,-2.0814769872284744,16938.450392599163,0.002630482006084821,-29.529204271802342
177,CH4,PBE,400,1,0,0.0,-24.03074392,1.1855463915,298.15,0.10399613877229275,-22.741201389727706,-0.7762174598206185,100000.0,0.0019322612735736655,-23.317305088443696
178,C2H4,PBE,400,1,0,0.0,-31.97057247,1.3499915829999998,298.15,0.10925555638727302,-30.511325330612728,0.5420512987574153,100000.0,0.0022744958972147834,-31.189466282367317
179,C2H6,PBE,400,1,0,0.0,-40.49388472,1.979942382,298.15,0.12147055565719445,-38.3924717823428,-0.8716184884019238,100000.0,0.002365931116862916,-39.09787414483548
180,CH2O,PBE,400,1,0,0.0,-22.14496668,0.6988070559999999,298.15,0.10394479581261584,-21.342214828187384,,100000.0,0.0022695356125764206,-22.018876871077044
181,N2,PBE,400,1,0,0.0,-16.60856483,0.1503956015,298.15,0.08992647292933639,-16.368242755570662,0.0,100000.0,0.001988493870340974,-16.961112203012824
182,NH3,PBE,400,1,0,0.0,-19.51954048,0.9098082295000001,298.15,0.10386637062460591,-18.505865879875394,-0.47700514290652546,100000.0,0.001997585837729168,-19.101446097394344
183,H2O,PBE,400,1,0,0.1,-14.5697576,0.557985772,298.15,0.10289308996719126,-13.90887873803281,-2.506445205454288,3166.74874006291,0.002257659635102187,-14.581999958238526
184,H2,PBE,400,1,0,0.1,-6.77641038,0.26545254949999997,298.15,0.08992399696490239,-6.421033833535097,0.0,100000.0,0.0013533698846691685,-6.82454106464921
185,O2,PBE,400,1,0,0.1,-9.86939635,0.097083286,298.15,0.09002545895863016,-9.68228760504137,0.0,100000.0,0.0021291956859635993,-10.317107298811418
186,H2O2,PBE,400,1,0,0.1,-18.56934825,0.690203922,298.15,0.11586291905397261,-17.76328140894603,-1.4093333767692797,100000.0,0.002375734967890891,-18.471606789622697
187,CO2,PBE,400,1,0,0.1,-23.14365374,0.30330070500000006,298.15,0.09832307000570295,-22.7420299649943,-4.080562177045822,100000.0,0.0022237215549913256,-23.40503254661496
188,CO,PBE,400,1,0,0.1,-14.84100663,0.131422115,298.15,0.08993347459248058,-14.61965104040752,-1.144812342975661,100000.0,0.002050388143451801,-15.230974265377675
189,HCOOH,PBE,400,1,0,0.1,-30.30230952,0.8812754600000001,298.15,0.11312817692479382,-29.307905883075207,-3.9244514030036863,5714.155064883787,0.0028288013042167114,-30.15131299192742
190,CH3OH,PBE,400,1,0,0.1,-30.46481396,1.348274422,298.15,0.11830476544812929,-28.99823477255187,-2.0814769872284744,16938.450392599163,0.002635701926913859,-29.784069302061237
191,CH4,PBE,400,1,0,0.1,-24.05549136,1.176935285,298.15,0.1041075010114223,-22.77444857398858,-0.7762174598206185,100000.0,0.0019328218118496096,-23.35071939719154
192,C2H4,PBE,400,1,0,0.1,-32.04166566,1.3454380989999999,298.15,0.10924414445641784,-30.586983416543582,0.5420512987574153,100000.0,0.0022747817067788633,-31.2652095824197
193,C2H6,PBE,400,1,0,0.1,-40.52099477,1.9682814890000002,298.15,0.1215901317544934,-38.43112314924551,-0.8716184884019238,100000.0,0.002366332788972382,-39.136645270277626
194,CH2O,PBE,400,1,0,0.1,-22.35545434,0.7038458825,298.15,0.10392844186037342,-21.547680015639628,,100000.0,0.002269864490419832,-22.2244401134583
195,N2,PBE,400,1,0,0.1,-16.63510914,0.15059508600000002,298.15,0.08992643800337688,-16.394587615996624,0.0,100000.0,0.001988402835068765,-16.987429921272376
196,NH3,PBE,400,1,0,0.1,-19.74297361,0.902473846,298.15,0.10389161505967637,-18.736608148940324,-0.47700514290652546,100000.0,0.001997922686985436,-19.332288798065033
197,H2O,PBE,400,1,0,1.0,-14.57033162,0.5579690285,298.15,0.10289312543509743,-13.909469466064902,-2.506445205454288,3166.74874006291,0.002257662459849983,-14.582591528469175
198,H2,PBE,400,1,0,1.0,-6.77642138,0.2654513445,298.15,0.08992399696495273,-6.421046038535048,0.0,100000.0,0.0013533701439893753,-6.82455334696548
199,O2,PBE,400,1,0,1.0,-9.86940222,0.0970832195,298.15,0.09002545941463679,-9.682293541085363,0.0,100000.0,0.0021291955728842977,-10.317113201140817
200,H2O2,PBE,400,1,0,1.0,-18.57009054,0.6900851375,298.15,0.1157097053435644,-17.764295697156435,-1.4093333767692797,100000.0,0.002374737243704844,-18.472323606367034
201,CO2,PBE,400,1,0,1.0,-23.14383942,0.303290136,298.15,0.0983242522772525,-22.742225031722747,-4.080562177045822,100000.0,0.002223727171593437,-23.40522928793333
202,CO,PBE,400,1,0,1.0,-14.84105285,0.13142157850000002,298.15,0.08993347494964732,-14.619697796550353,-1.144812342975661,100000.0,0.0020503880028847395,-15.231020979610438
203,HCOOH,PBE,400,1,0,1.0,-30.30288551,0.8812522835000001,298.15,0.11313005117149566,-29.308503175328504,-3.9244514030036863,5714.155064883787,0.0028288096722193664,-30.15191277910071
204,CH3OH,PBE,400,1,0,1.0,-30.46525894,1.3482661434999998,298.15,0.118302546577562,-28.998690249922436,-2.0814769872284744,16938.450392599163,0.00263568613673712,-29.78452007159061
205,CH4,PBE,400,1,0,1.0,-24.05550537,1.1769227245,298.15,0.10410767888964645,-22.774474966610352,-0.7762174598206185,100000.0,0.0019328226451164625,-23.350746038251824
206,C2H4,PBE,400,1,0,1.0,-32.04175237,1.3454310025,298.15,0.10924409584476513,-30.587077271655232,0.5420512987574153,100000.0,0.0022747820013973674,-31.265303525371856
207,C2H6,PBE,400,1,0,1.0,-40.52100993,1.9682666464999998,298.15,0.12159076357734322,-38.431152519922655,-0.8716184884019238,100000.0,0.002366336243500893,-39.13667567092244
208,CH2O,PBE,400,1,0,1.0,-22.35588534,0.7038258140000001,298.15,0.10392841694496535,-21.548131109055035,,100000.0,0.002269869063755013,-22.22489257041359
209,N2,PBE,400,1,0,1.0,-16.63513514,0.15059767500000001,298.15,0.08992643755331661,-16.394611027446683,0.0,100000.0,0.001988402729179265,-16.98745330115148
210,NH3,PBE,400,1,0,1.0,-19.74332267,0.9024376235000001,298.15,0.10389250970364017,-18.73699253679636,-0.47700514290652546,100000.0,0.0019979272093860767,-19.33267453427482
211,H2O,PBE,400,1,10,0.0,-14.22327106,0.5652359945000001,298.15,0.1028658070266264,-13.555169258473374,-2.506445205454288,3166.74874006291,0.0022570613178281513,-14.228112090383837
212,H2,PBE,400,1,10,0.0,-6.75965148,0.266677251,298.15,0.08992399691602943,-6.40305023208397,0.0,100000.0,0.0013530839186672251,-6.806472202434604
213,O2,PBE,400,1,10,0.0,-9.85879734,0.097142002,298.15,0.09002505710992814,-9.671630280890072,0.0,100000.0,0.002129304688597774,-10.306482473795498
214,H2O2,PBE,400,1,10,0.0,-18.15732777,0.6946476745000001,298.15,0.11445196370165123,-17.348228131798347,-1.4093333767692797,100000.0,0.0023662197777036898,-18.0537165585207
215,CO2,PBE,400,1,10,0.0,-22.99342321,0.306786179,298.15,0.09800004625401776,-22.588636984745982,-4.080562177045822,100000.0,0.0022223289320202557,-23.25122435582782
216,CO,PBE,400,1,10,0.0,-14.79794045,0.1317160655,298.15,0.08993328088632871,-14.576291103613672,-1.144812342975661,100000.0,0.002050455885850014,-15.187634525979853
217,HCOOH,PBE,400,1,10,0.0,-29.92692618,0.88613877,298.15,0.1128023810077915,-28.927985028992207,-3.9244514030036863,5714.155064883787,0.002827346877649997,-29.770958500563555
218,CH3OH,PBE,400,1,10,0.0,-30.25317181,1.3502235354999998,298.15,0.1175410134664856,-28.785407261033516,-2.0814769872284744,16938.450392599163,0.00263006417239357,-29.56956089403266
219,CH4,PBE,400,1,10,0.0,-24.05253388,1.1787942405,298.15,0.10402452109301685,-22.76971511840698,-0.7762174598206185,100000.0,0.0019326862932997518,-23.345945536754304
220,C2H4,PBE,400,1,10,0.0,-32.00335497,1.3457416315,298.15,0.10933229009077405,-30.548281048409223,0.5420512987574153,100000.0,0.002275015945853651,-31.22657705266549
221,C2H6,PBE,400,1,10,0.0,-40.56279108,1.9683042025000002,298.15,0.12173055608599315,-38.472756321414,-0.8716184884019238,100000.0,0.0023672785519238213,-39.17856042167009
222,CH2O,PBE,400,1,10,0.0,-22.15595267,0.6971671314999999,298.15,0.1039452990114842,-21.354840239488517,,100000.0,0.0022697095079677694,-22.03155412928911
223,N2,PBE,400,1,10,0.0,-16.60860906,0.150395277,298.15,0.08992647298655265,-16.368287310013447,0.0,100000.0,0.001988493925414,-16.96115677387563
224,NH3,PBE,400,1,10,0.0,-19.52408623,0.9073663089999999,298.15,0.10389044395446634,-18.512829477045535,-0.47700514290652546,100000.0,0.0019978140487521244,-19.10847773568098
225,H2O,PBE,400,1,10,0.1,-14.57061756,0.5575419699999999,298.15,0.10289417414742008,-13.91018141585258,-2.506445205454288,3166.74874006291,0.002257678272560906,-14.583308192816615
226,H2,PBE,400,1,10,0.1,-6.77643469,0.26545006250000003,298.15,0.08992399696500653,-6.421060630534994,0.0,100000.0,0.0013533701974185461,-6.8245679548953335
227,O2,PBE,400,1,10,0.1,-9.86943567,0.0970826345,298.15,0.09002546342620608,-9.682327572073794,0.0,100000.0,0.0021291958703564314,-10.317147320820563
228,H2O2,PBE,400,1,10,0.1,-18.57799324,0.689859846,298.15,0.11567679300625233,-17.77245660099375,-1.4093333767692797,100000.0,0.0023744171677073664,-18.4803890795457
229,CO2,PBE,400,1,10,0.1,-23.14623031,0.3032187375,298.15,0.09831568186080725,-22.744695890639193,-4.080562177045822,100000.0,0.0022236995562598992,-23.40769191333808
230,CO,PBE,400,1,10,0.1,-14.84104852,0.131421736,298.15,0.08993347484479314,-14.619693309155206,-1.144812342975661,100000.0,0.0020503882215542686,-15.23101655741161
231,HCOOH,PBE,400,1,10,0.1,-30.3197217,0.8815398125000001,298.15,0.1130638684761266,-29.325118019023872,-3.9244514030036863,5714.155064883787,0.0028285229587185494,-30.16844213916581
232,CH3OH,PBE,400,1,10,0.1,-30.50038153,1.3426029545,298.15,0.1185208216024789,-29.03925775389752,-2.0814769872284744,16938.450392599163,0.00263729653686758,-29.82556771636459
233,CH4,PBE,400,1,10,0.1,-24.07739961,1.1697390465,298.15,0.10413647653475011,-22.80352408696525,-0.7762174598206185,100000.0,0.0019333092002831141,-23.37994022502966
234,C2H4,PBE,400,1,10,0.1,-32.07463282,1.3410975625,298.15,0.10931895866659502,-30.624216298833403,0.5420512987574153,100000.0,0.0022753074237786735,-31.302599207233015
235,C2H6,PBE,400,1,10,0.1,-40.59036083,1.9562484580000004,298.15,0.12206911139408017,-38.51204326060592,-0.8716184884019238,100000.0,0.0023691687562545365,-39.21841092528321
236,CH2O,PBE,400,1,10,0.1,-22.36631751,0.7022645089999999,298.15,0.10393158888119114,-21.560121412118807,,100000.0,0.0022700266406393134,-22.23692985502542
237,N2,PBE,400,1,10,0.1,-16.63515333,0.1505970905,298.15,0.08992643765491673,-16.394629801845085,0.0,100000.0,0.0019884028883524084,-16.987472123007354
238,NH3,PBE,400,1,10,0.1,-19.74734827,0.9013150919999999,298.15,0.10390980154762008,-18.74212337645238,-0.47700514290652546,100000.0,0.0019979720541546016,-19.337818744398575
239,H2O,PBE,400,1,10,1.0,-14.57119128,0.557528303,298.15,0.10289418994553556,-13.910768787054465,-2.506445205454288,3166.74874006291,0.002257680946966224,-14.583896361392444